  18  18   0   0
  0.1192529E+02  0.3716900E-09  0.5407759E-09  0.1067931E-08  0.5000000E-15
  1.000000000000000E-004
  CAR 
 unknown system                          
     16.97760471    -16.83536766  301      3.40201839      1.00000000
    -16.835  0.0000E+00  0.0000E+00  0.0000E+00  0.0000E+00
    -16.723  0.0000E+00  0.0000E+00  0.0000E+00  0.0000E+00
    -16.610  0.0000E+00  0.0000E+00  0.0000E+00  0.0000E+00
    -16.497  0.0000E+00  0.0000E+00  0.0000E+00  0.0000E+00
    -16.385  0.0000E+00  0.0000E+00  0.0000E+00  0.0000E+00
    -16.272  0.0000E+00  0.0000E+00  0.0000E+00  0.0000E+00
    -16.159  0.0000E+00  0.0000E+00  0.0000E+00  0.0000E+00
    -16.046  0.0000E+00  0.0000E+00  0.0000E+00  0.0000E+00
    -15.934  0.0000E+00  0.0000E+00  0.0000E+00  0.0000E+00
    -15.821  0.0000E+00  0.0000E+00  0.0000E+00  0.0000E+00
    -15.708  0.0000E+00  0.0000E+00  0.0000E+00  0.0000E+00
    -15.596  0.0000E+00  0.0000E+00  0.0000E+00  0.0000E+00
    -15.483  0.3317E-07  0.0000E+00  0.3739E-08  0.0000E+00
    -15.370  0.1071E-01  0.2857E-09  0.1207E-02  0.3220E-10
    -15.257  0.9720E+00  0.1022E-02  0.1108E+00  0.1152E-03
    -15.145  0.2228E+01  0.5289E+00  0.3619E+00  0.5973E-01
    -15.032  0.3139E+01  0.2089E+01  0.7158E+00  0.2951E+00
    -14.919  0.3281E+01  0.2540E+01  0.1086E+01  0.5814E+00
    -14.807  0.5336E+01  0.3459E+01  0.1687E+01  0.9713E+00
    -14.694  0.3483E+01  0.5086E+01  0.2079E+01  0.1545E+01
    -14.581  0.4321E+01  0.3956E+01  0.2566E+01  0.1990E+01
    -14.468  0.5078E+01  0.5197E+01  0.3139E+01  0.2576E+01
    -14.356  0.3643E+01  0.4923E+01  0.3549E+01  0.3131E+01
    -14.243  0.5986E+01  0.3886E+01  0.4224E+01  0.3569E+01
    -14.130  0.5574E+01  0.5258E+01  0.4852E+01  0.4162E+01
    -14.018  0.1468E+02  0.3794E+01  0.6507E+01  0.4589E+01
    -13.905  0.1268E+02  0.1065E+02  0.7936E+01  0.5790E+01
    -13.792  0.6379E+00  0.1424E+02  0.8008E+01  0.7395E+01
    -13.679  0.3560E+01  0.5458E+01  0.8409E+01  0.8010E+01
    -13.567  0.9516E+01  0.4020E+01  0.9481E+01  0.8463E+01
    -13.454  0.4579E+01  0.9900E+01  0.9997E+01  0.9579E+01
    -13.341  0.2385E-01  0.3706E+01  0.1000E+02  0.9997E+01
    -13.229  0.2676E-07  0.3069E-01  0.1000E+02  0.1000E+02
    -13.116  0.0000E+00  0.5084E-07  0.1000E+02  0.1000E+02
    -13.003  0.0000E+00  0.0000E+00  0.1000E+02  0.1000E+02
    -12.891  0.0000E+00  0.0000E+00  0.1000E+02  0.1000E+02
    -12.778  0.0000E+00  0.0000E+00  0.1000E+02  0.1000E+02
    -12.665  0.0000E+00  0.0000E+00  0.1000E+02  0.1000E+02
    -12.552  0.0000E+00  0.0000E+00  0.1000E+02  0.1000E+02
    -12.440  0.0000E+00  0.0000E+00  0.1000E+02  0.1000E+02
    -12.327  0.0000E+00  0.0000E+00  0.1000E+02  0.1000E+02
    -12.214  0.0000E+00  0.0000E+00  0.1000E+02  0.1000E+02
    -12.102  0.0000E+00  0.0000E+00  0.1000E+02  0.1000E+02
    -11.989  0.0000E+00  0.0000E+00  0.1000E+02  0.1000E+02
    -11.876  0.0000E+00  0.0000E+00  0.1000E+02  0.1000E+02
    -11.763  0.0000E+00  0.0000E+00  0.1000E+02  0.1000E+02
    -11.651  0.0000E+00  0.0000E+00  0.1000E+02  0.1000E+02
    -11.538  0.0000E+00  0.0000E+00  0.1000E+02  0.1000E+02
    -11.425  0.0000E+00  0.0000E+00  0.1000E+02  0.1000E+02
    -11.313  0.0000E+00  0.0000E+00  0.1000E+02  0.1000E+02
    -11.200  0.0000E+00  0.0000E+00  0.1000E+02  0.1000E+02
    -11.087  0.0000E+00  0.0000E+00  0.1000E+02  0.1000E+02
    -10.974  0.0000E+00  0.0000E+00  0.1000E+02  0.1000E+02
    -10.862  0.0000E+00  0.0000E+00  0.1000E+02  0.1000E+02
    -10.749  0.0000E+00  0.0000E+00  0.1000E+02  0.1000E+02
    -10.636  0.0000E+00  0.0000E+00  0.1000E+02  0.1000E+02
    -10.524  0.0000E+00  0.0000E+00  0.1000E+02  0.1000E+02
    -10.411  0.0000E+00  0.0000E+00  0.1000E+02  0.1000E+02
    -10.298  0.0000E+00  0.0000E+00  0.1000E+02  0.1000E+02
    -10.185  0.0000E+00  0.0000E+00  0.1000E+02  0.1000E+02
    -10.073  0.0000E+00  0.0000E+00  0.1000E+02  0.1000E+02
     -9.960  0.0000E+00  0.0000E+00  0.1000E+02  0.1000E+02
     -9.847  0.0000E+00  0.0000E+00  0.1000E+02  0.1000E+02
     -9.735  0.0000E+00  0.0000E+00  0.1000E+02  0.1000E+02
     -9.622  0.0000E+00  0.0000E+00  0.1000E+02  0.1000E+02
     -9.509  0.0000E+00  0.0000E+00  0.1000E+02  0.1000E+02
     -9.397  0.0000E+00  0.0000E+00  0.1000E+02  0.1000E+02
     -9.284  0.0000E+00  0.0000E+00  0.1000E+02  0.1000E+02
     -9.171  0.0000E+00  0.0000E+00  0.1000E+02  0.1000E+02
     -9.058  0.0000E+00  0.0000E+00  0.1000E+02  0.1000E+02
     -8.946  0.0000E+00  0.0000E+00  0.1000E+02  0.1000E+02
     -8.833  0.0000E+00  0.0000E+00  0.1000E+02  0.1000E+02
     -8.720  0.0000E+00  0.0000E+00  0.1000E+02  0.1000E+02
     -8.608  0.0000E+00  0.0000E+00  0.1000E+02  0.1000E+02
     -8.495  0.0000E+00  0.0000E+00  0.1000E+02  0.1000E+02
     -8.382  0.0000E+00  0.0000E+00  0.1000E+02  0.1000E+02
     -8.269  0.0000E+00  0.0000E+00  0.1000E+02  0.1000E+02
     -8.157  0.0000E+00  0.0000E+00  0.1000E+02  0.1000E+02
     -8.044  0.0000E+00  0.0000E+00  0.1000E+02  0.1000E+02
     -7.931  0.0000E+00  0.0000E+00  0.1000E+02  0.1000E+02
     -7.819  0.0000E+00  0.0000E+00  0.1000E+02  0.1000E+02
     -7.706  0.0000E+00  0.0000E+00  0.1000E+02  0.1000E+02
     -7.593  0.0000E+00  0.0000E+00  0.1000E+02  0.1000E+02
     -7.480  0.0000E+00  0.0000E+00  0.1000E+02  0.1000E+02
     -7.368  0.0000E+00  0.0000E+00  0.1000E+02  0.1000E+02
     -7.255  0.0000E+00  0.0000E+00  0.1000E+02  0.1000E+02
     -7.142  0.0000E+00  0.0000E+00  0.1000E+02  0.1000E+02
     -7.030  0.0000E+00  0.0000E+00  0.1000E+02  0.1000E+02
     -6.917  0.0000E+00  0.0000E+00  0.1000E+02  0.1000E+02
     -6.804  0.0000E+00  0.0000E+00  0.1000E+02  0.1000E+02
     -6.691  0.0000E+00  0.0000E+00  0.1000E+02  0.1000E+02
     -6.579  0.0000E+00  0.0000E+00  0.1000E+02  0.1000E+02
     -6.466  0.0000E+00  0.0000E+00  0.1000E+02  0.1000E+02
     -6.353  0.0000E+00  0.0000E+00  0.1000E+02  0.1000E+02
     -6.241  0.0000E+00  0.0000E+00  0.1000E+02  0.1000E+02
     -6.128  0.0000E+00  0.0000E+00  0.1000E+02  0.1000E+02
     -6.015  0.0000E+00  0.0000E+00  0.1000E+02  0.1000E+02
     -5.903  0.0000E+00  0.0000E+00  0.1000E+02  0.1000E+02
     -5.790  0.0000E+00  0.0000E+00  0.1000E+02  0.1000E+02
     -5.677  0.0000E+00  0.0000E+00  0.1000E+02  0.1000E+02
     -5.564  0.0000E+00  0.0000E+00  0.1000E+02  0.1000E+02
     -5.452  0.0000E+00  0.0000E+00  0.1000E+02  0.1000E+02
     -5.339  0.0000E+00  0.0000E+00  0.1000E+02  0.1000E+02
     -5.226  0.0000E+00  0.0000E+00  0.1000E+02  0.1000E+02
     -5.114  0.0000E+00  0.0000E+00  0.1000E+02  0.1000E+02
     -5.001  0.0000E+00  0.0000E+00  0.1000E+02  0.1000E+02
     -4.888  0.0000E+00  0.0000E+00  0.1000E+02  0.1000E+02
     -4.775  0.0000E+00  0.0000E+00  0.1000E+02  0.1000E+02
     -4.663  0.0000E+00  0.0000E+00  0.1000E+02  0.1000E+02
     -4.550  0.0000E+00  0.0000E+00  0.1000E+02  0.1000E+02
     -4.437  0.0000E+00  0.0000E+00  0.1000E+02  0.1000E+02
     -4.325  0.0000E+00  0.0000E+00  0.1000E+02  0.1000E+02
     -4.212  0.0000E+00  0.0000E+00  0.1000E+02  0.1000E+02
     -4.099  0.0000E+00  0.0000E+00  0.1000E+02  0.1000E+02
     -3.986  0.0000E+00  0.0000E+00  0.1000E+02  0.1000E+02
     -3.874  0.0000E+00  0.0000E+00  0.1000E+02  0.1000E+02
     -3.761  0.1507E-13  0.0000E+00  0.1000E+02  0.1000E+02
     -3.648  0.5164E-05  0.0000E+00  0.1000E+02  0.1000E+02
     -3.536  0.1474E+00  0.0000E+00  0.1002E+02  0.1000E+02
     -3.423  0.2717E+01  0.0000E+00  0.1032E+02  0.1000E+02
     -3.310  0.4243E+01  0.0000E+00  0.1080E+02  0.1000E+02
     -3.197  0.2614E+01  0.0000E+00  0.1110E+02  0.1000E+02
     -3.085  0.4180E+01  0.0000E+00  0.1157E+02  0.1000E+02
     -2.972  0.4519E+01  0.0000E+00  0.1208E+02  0.1000E+02
     -2.859  0.9300E+01  0.6156E-17  0.1312E+02  0.1000E+02
     -2.747  0.1213E+02  0.6081E-07  0.1449E+02  0.1000E+02
     -2.634  0.5296E+01  0.2685E-01  0.1509E+02  0.1000E+02
     -2.521  0.9030E+01  0.2299E+01  0.1611E+02  0.1026E+02
     -2.408  0.1215E+02  0.1672E+01  0.1748E+02  0.1045E+02
     -2.296  0.9465E+01  0.1861E+01  0.1854E+02  0.1066E+02
     -2.183  0.1851E+02  0.1851E+01  0.2063E+02  0.1087E+02
     -2.070  0.1333E+02  0.2773E+01  0.2213E+02  0.1118E+02
     -1.958  0.8711E+01  0.4907E+01  0.2311E+02  0.1173E+02
     -1.845  0.1064E+02  0.3969E+01  0.2431E+02  0.1218E+02
     -1.732  0.1377E+02  0.4899E+01  0.2586E+02  0.1273E+02
     -1.620  0.1006E+02  0.3856E+01  0.2700E+02  0.1317E+02
     -1.507  0.6636E+01  0.3781E+01  0.2775E+02  0.1359E+02
     -1.394  0.9719E+01  0.5515E+01  0.2884E+02  0.1422E+02
     -1.281  0.1073E+02  0.6885E+01  0.3005E+02  0.1499E+02
     -1.169  0.6422E+01  0.1064E+02  0.3077E+02  0.1619E+02
     -1.056  0.3510E+01  0.8765E+01  0.3117E+02  0.1718E+02
     -0.943  0.9731E+01  0.9449E+01  0.3227E+02  0.1825E+02
     -0.831  0.1030E+02  0.1034E+02  0.3343E+02  0.1941E+02
     -0.718  0.6807E+01  0.1049E+02  0.3420E+02  0.2059E+02
     -0.605  0.7042E+01  0.6866E+01  0.3499E+02  0.2137E+02
     -0.492  0.1173E+02  0.6200E+01  0.3631E+02  0.2207E+02
     -0.380  0.1161E+02  0.7443E+01  0.3762E+02  0.2290E+02
     -0.267  0.1026E+02  0.6853E+01  0.3878E+02  0.2368E+02
     -0.154  0.1225E+02  0.6907E+01  0.4016E+02  0.2446E+02
     -0.042  0.1652E+02  0.8546E+01  0.4202E+02  0.2542E+02
      0.071  0.2547E+02  0.9186E+01  0.4489E+02  0.2645E+02
      0.184  0.2299E+02  0.1002E+02  0.4748E+02  0.2758E+02
      0.297  0.1956E+02  0.7045E+01  0.4968E+02  0.2838E+02
      0.409  0.8170E+01  0.6543E+01  0.5061E+02  0.2911E+02
      0.522  0.9478E+01  0.7960E+01  0.5167E+02  0.3001E+02
      0.635  0.8273E+01  0.8066E+01  0.5261E+02  0.3092E+02
      0.747  0.8366E+01  0.1137E+02  0.5355E+02  0.3220E+02
      0.860  0.1028E+02  0.7546E+01  0.5471E+02  0.3305E+02
      0.973  0.1071E+02  0.5398E+01  0.5591E+02  0.3366E+02
      1.086  0.8672E+01  0.3732E+01  0.5689E+02  0.3408E+02
      1.198  0.9307E+01  0.2327E+01  0.5794E+02  0.3434E+02
      1.311  0.9968E+01  0.4846E+01  0.5906E+02  0.3489E+02
      1.424  0.7033E+01  0.7376E+01  0.5986E+02  0.3572E+02
      1.536  0.9500E+01  0.1071E+02  0.6093E+02  0.3693E+02
      1.649  0.7683E+01  0.7718E+01  0.6179E+02  0.3780E+02
      1.762  0.6619E+01  0.3635E+01  0.6254E+02  0.3821E+02
      1.874  0.5428E+01  0.3986E+01  0.6315E+02  0.3866E+02
      1.987  0.1018E+02  0.3493E+01  0.6430E+02  0.3905E+02
      2.100  0.1098E+02  0.2706E+01  0.6554E+02  0.3936E+02
      2.213  0.8928E+01  0.4977E+01  0.6654E+02  0.3992E+02
      2.325  0.7326E+01  0.7330E+00  0.6737E+02  0.4000E+02
      2.438  0.1117E+02  0.6207E-03  0.6863E+02  0.4000E+02
      2.551  0.5497E+01  0.7159E-10  0.6925E+02  0.4000E+02
      2.663  0.2754E+01  0.0000E+00  0.6956E+02  0.4000E+02
      2.776  0.7005E+01  0.0000E+00  0.7035E+02  0.4000E+02
      2.889  0.1138E+02  0.0000E+00  0.7163E+02  0.4000E+02
      3.002  0.1143E+02  0.0000E+00  0.7292E+02  0.4000E+02
      3.114  0.1290E+02  0.0000E+00  0.7437E+02  0.4000E+02
      3.227  0.5947E+01  0.0000E+00  0.7504E+02  0.4000E+02
      3.340  0.5674E+01  0.0000E+00  0.7568E+02  0.4000E+02
      3.452  0.5149E+01  0.0000E+00  0.7626E+02  0.4000E+02
      3.565  0.2104E+01  0.0000E+00  0.7650E+02  0.4000E+02
      3.678  0.2230E+01  0.0000E+00  0.7675E+02  0.4000E+02
      3.791  0.2085E+01  0.0000E+00  0.7698E+02  0.4000E+02
      3.903  0.1671E+01  0.0000E+00  0.7717E+02  0.4000E+02
      4.016  0.1106E+01  0.0000E+00  0.7730E+02  0.4000E+02
      4.129  0.1703E+01  0.0000E+00  0.7749E+02  0.4000E+02
      4.241  0.3538E+01  0.0000E+00  0.7789E+02  0.4000E+02
      4.354  0.2833E+01  0.0000E+00  0.7821E+02  0.4000E+02
      4.467  0.1548E+01  0.0000E+00  0.7838E+02  0.4000E+02
      4.580  0.2106E+01  0.0000E+00  0.7862E+02  0.4000E+02
      4.692  0.2502E+01  0.5664E-15  0.7890E+02  0.4000E+02
      4.805  0.2869E+00  0.4516E-06  0.7893E+02  0.4000E+02
      4.918  0.5554E+00  0.2550E-01  0.7900E+02  0.4000E+02
      5.030  0.6021E+00  0.6207E+00  0.7906E+02  0.4007E+02
      5.143  0.5172E+00  0.4715E+00  0.7912E+02  0.4013E+02
      5.256  0.5497E+00  0.3408E+00  0.7918E+02  0.4016E+02
      5.368  0.8377E+00  0.1123E+01  0.7928E+02  0.4029E+02
      5.481  0.3331E+01  0.1381E+01  0.7965E+02  0.4045E+02
      5.594  0.2453E+01  0.1475E+01  0.7993E+02  0.4061E+02
      5.707  0.2254E+01  0.2920E+01  0.8019E+02  0.4094E+02
      5.819  0.7236E+00  0.3169E+01  0.8027E+02  0.4130E+02
      5.932  0.2795E+00  0.3739E+01  0.8030E+02  0.4172E+02
      6.045  0.2514E+00  0.3945E+01  0.8033E+02  0.4217E+02
      6.157  0.2059E+00  0.4825E+01  0.8035E+02  0.4271E+02
      6.270  0.2566E+00  0.8231E+01  0.8038E+02  0.4364E+02
      6.383  0.1921E+00  0.8865E+01  0.8040E+02  0.4464E+02
      6.496  0.2214E+00  0.1400E+02  0.8043E+02  0.4621E+02
      6.608  0.1930E+00  0.1526E+02  0.8045E+02  0.4793E+02
      6.721  0.2085E+00  0.1070E+02  0.8047E+02  0.4914E+02
      6.834  0.2193E+00  0.1162E+02  0.8050E+02  0.5045E+02
      6.946  0.6088E+00  0.1640E+02  0.8056E+02  0.5230E+02
      7.059  0.1560E+01  0.2090E+02  0.8074E+02  0.5465E+02
      7.172  0.1158E+01  0.1482E+02  0.8087E+02  0.5632E+02
      7.285  0.5795E+00  0.1171E+02  0.8094E+02  0.5764E+02
      7.397  0.7318E+00  0.1204E+02  0.8102E+02  0.5900E+02
      7.510  0.7149E+00  0.1800E+02  0.8110E+02  0.6103E+02
      7.623  0.1320E+01  0.2438E+02  0.8125E+02  0.6378E+02
      7.735  0.1034E+01  0.2404E+02  0.8136E+02  0.6649E+02
      7.848  0.1568E+01  0.1728E+02  0.8154E+02  0.6843E+02
      7.961  0.1735E+01  0.1873E+02  0.8174E+02  0.7054E+02
      8.074  0.2108E+01  0.2207E+02  0.8197E+02  0.7303E+02
      8.186  0.4533E+01  0.2010E+02  0.8248E+02  0.7530E+02
      8.299  0.1226E+01  0.1818E+02  0.8262E+02  0.7735E+02
      8.412  0.1066E+01  0.8257E+01  0.8274E+02  0.7828E+02
      8.524  0.1945E+01  0.6119E+01  0.8296E+02  0.7897E+02
      8.637  0.4940E+01  0.5268E+01  0.8352E+02  0.7956E+02
      8.750  0.2860E+01  0.8413E+01  0.8384E+02  0.8051E+02
      8.862  0.7117E+00  0.2462E+01  0.8392E+02  0.8079E+02
      8.975  0.7127E+00  0.8629E+00  0.8400E+02  0.8088E+02
      9.088  0.1262E+01  0.8633E+00  0.8414E+02  0.8098E+02
      9.201  0.1174E+01  0.7797E+00  0.8428E+02  0.8107E+02
      9.313  0.1828E+01  0.7081E+00  0.8448E+02  0.8115E+02
      9.426  0.2091E+01  0.1560E+01  0.8472E+02  0.8132E+02
      9.539  0.2601E+01  0.1571E+01  0.8501E+02  0.8150E+02
      9.651  0.1392E+01  0.8122E+00  0.8517E+02  0.8159E+02
      9.764  0.2001E+01  0.6877E+00  0.8539E+02  0.8167E+02
      9.877  0.1581E+01  0.7149E+00  0.8557E+02  0.8175E+02
      9.990  0.7790E+00  0.1430E+01  0.8566E+02  0.8191E+02
     10.102  0.1975E+01  0.3226E+01  0.8588E+02  0.8228E+02
     10.215  0.1030E+01  0.1123E+01  0.8600E+02  0.8240E+02
     10.328  0.1283E-01  0.2271E+01  0.8600E+02  0.8266E+02
     10.440  0.5391E-03  0.4505E+01  0.8600E+02  0.8317E+02
     10.553  0.3385E+00  0.4789E+01  0.8604E+02  0.8371E+02
     10.666  0.1886E+01  0.1821E+01  0.8625E+02  0.8391E+02
     10.779  0.2447E+01  0.1335E+01  0.8653E+02  0.8406E+02
     10.891  0.2466E+01  0.9159E+00  0.8680E+02  0.8416E+02
     11.004  0.2604E+01  0.1485E+01  0.8710E+02  0.8433E+02
     11.117  0.2479E+01  0.1732E+01  0.8738E+02  0.8453E+02
     11.229  0.2459E+01  0.2391E+01  0.8765E+02  0.8480E+02
     11.342  0.1190E+01  0.3064E+01  0.8779E+02  0.8514E+02
     11.455  0.9094E+00  0.1468E+01  0.8789E+02  0.8531E+02
     11.568  0.1464E+01  0.1629E+01  0.8806E+02  0.8549E+02
     11.680  0.1552E+01  0.2811E+01  0.8823E+02  0.8581E+02
     11.793  0.1542E+01  0.2572E+01  0.8841E+02  0.8610E+02
     11.906  0.1471E+01  0.1774E+01  0.8857E+02  0.8630E+02
     12.018  0.1418E+01  0.1046E+01  0.8873E+02  0.8642E+02
     12.131  0.9175E+00  0.9093E+00  0.8883E+02  0.8652E+02
     12.244  0.1066E+01  0.1422E+01  0.8895E+02  0.8668E+02
     12.356  0.1766E+01  0.1729E+01  0.8915E+02  0.8687E+02
     12.469  0.1228E+01  0.1469E+01  0.8929E+02  0.8704E+02
     12.582  0.9032E+00  0.1892E+01  0.8939E+02  0.8725E+02
     12.695  0.1041E+01  0.1614E+01  0.8951E+02  0.8743E+02
     12.807  0.7442E+00  0.1634E+01  0.8959E+02  0.8762E+02
     12.920  0.7923E+00  0.1407E+01  0.8968E+02  0.8778E+02
     13.033  0.4491E+00  0.1441E+01  0.8973E+02  0.8794E+02
     13.145  0.1631E+00  0.1600E+01  0.8975E+02  0.8812E+02
     13.258  0.1756E+00  0.1365E+01  0.8977E+02  0.8827E+02
     13.371  0.1789E+00  0.1127E+01  0.8979E+02  0.8840E+02
     13.484  0.3814E+00  0.1459E+01  0.8984E+02  0.8856E+02
     13.596  0.4931E+00  0.1259E+01  0.8989E+02  0.8871E+02
     13.709  0.2494E+00  0.1130E+01  0.8992E+02  0.8883E+02
     13.822  0.1713E+00  0.9820E+00  0.8994E+02  0.8894E+02
     13.934  0.2077E+00  0.1123E+01  0.8996E+02  0.8907E+02
     14.047  0.2829E+00  0.1342E+01  0.8999E+02  0.8922E+02
     14.160  0.5000E-01  0.1009E+01  0.9000E+02  0.8934E+02
     14.273  0.1384E-04  0.7658E+00  0.9000E+02  0.8942E+02
     14.385  0.3329E-12  0.5029E+00  0.9000E+02  0.8948E+02
     14.498  0.0000E+00  0.4520E+00  0.9000E+02  0.8953E+02
     14.611  0.0000E+00  0.4442E+00  0.9000E+02  0.8958E+02
     14.723  0.0000E+00  0.4127E+00  0.9000E+02  0.8963E+02
     14.836  0.0000E+00  0.5556E+00  0.9000E+02  0.8969E+02
     14.949  0.0000E+00  0.3501E+00  0.9000E+02  0.8973E+02
     15.062  0.0000E+00  0.5601E+00  0.9000E+02  0.8979E+02
     15.174  0.0000E+00  0.7808E+00  0.9000E+02  0.8988E+02
     15.287  0.0000E+00  0.2971E+00  0.9000E+02  0.8991E+02
     15.400  0.0000E+00  0.4691E+00  0.9000E+02  0.8997E+02
     15.512  0.0000E+00  0.2924E+00  0.9000E+02  0.9000E+02
     15.625  0.0000E+00  0.3837E-02  0.9000E+02  0.9000E+02
     15.738  0.0000E+00  0.1168E-07  0.9000E+02  0.9000E+02
     15.851  0.0000E+00  0.0000E+00  0.9000E+02  0.9000E+02
     15.963  0.0000E+00  0.0000E+00  0.9000E+02  0.9000E+02
     16.076  0.0000E+00  0.0000E+00  0.9000E+02  0.9000E+02
     16.189  0.0000E+00  0.0000E+00  0.9000E+02  0.9000E+02
     16.301  0.0000E+00  0.0000E+00  0.9000E+02  0.9000E+02
     16.414  0.0000E+00  0.0000E+00  0.9000E+02  0.9000E+02
     16.527  0.0000E+00  0.0000E+00  0.9000E+02  0.9000E+02
     16.639  0.0000E+00  0.0000E+00  0.9000E+02  0.9000E+02
     16.752  0.0000E+00  0.0000E+00  0.9000E+02  0.9000E+02
     16.865  0.0000E+00  0.0000E+00  0.9000E+02  0.9000E+02
     16.978  0.0000E+00  0.0000E+00  0.9000E+02  0.9000E+02
