   18   18    1    2
  0.1192529E+02  0.3716900E-09  0.5407759E-09  0.1067931E-08  0.5000000E-15
  1.000000000000000E-004
  CAR 
 unknown system                          
    116    240     90
 
  0.0000000E+00  0.0000000E+00  0.0000000E+00  0.4166667E-02
    1      -15.298414    -15.157015   1.000000   1.000000
    2      -15.115597    -14.964630   1.000000   1.000000
    3      -14.901563    -14.757898   1.000000   1.000000
    4      -14.734996    -14.567185   1.000000   1.000000
    5      -14.052659    -13.892796   1.000000   1.000000
    6      -14.046033    -13.878457   1.000000   1.000000
    7      -13.965527    -13.789368   1.000000   1.000000
    8      -13.956841    -13.776022   1.000000   1.000000
    9      -13.588632    -13.506628   1.000000   1.000000
   10      -13.585815    -13.504859   1.000000   1.000000
   11       -2.765879     -1.526148   1.000000   1.000000
   12       -2.711485     -1.278321   1.000000   1.000000
   13       -2.566767     -1.276380   1.000000   1.000000
   14       -2.536910     -1.219362   1.000000   1.000000
   15       -2.488783     -1.199008   1.000000   1.000000
   16       -2.470746     -1.182234   1.000000   1.000000
   17       -2.376225     -1.134205   1.000000   1.000000
   18       -2.234169     -1.116944   1.000000   1.000000
   19       -2.202633     -0.842040   1.000000   1.000000
   20       -2.156702     -0.722881   1.000000   1.000000
   21       -2.086190     -0.700631   1.000000   1.000000
   22       -2.022256     -0.597214   1.000000   1.000000
   23       -1.976264     -0.291655   1.000000   1.000000
   24       -1.828572     -0.191739   1.000000   1.000000
   25       -1.783121     -0.087725   1.000000   1.000000
   26       -1.684034      0.161877   1.000000   1.000000
   27       -1.680287      0.248463   1.000000   1.000000
   28       -1.639648      0.420669   1.000000   1.000000
   29       -1.216233      0.426474   1.000000   1.000000
   30       -1.212185      0.578295   1.000000   1.000000
   31       -1.167069      0.639488   1.000000   1.000000
   32       -1.088570      0.715522   1.000000   1.000000
   33       -0.711660      0.808025   1.000000   1.000000
   34       -0.687137      1.014548   1.000000   1.000000
   35       -0.640124      1.346034   1.000000   1.000000
   36       -0.543790      1.368808   1.000000   1.000000
   37       -0.518165      1.422481   1.000000   1.000000
   38       -0.442122      1.526958   1.000000   1.000000
   39       -0.212164      1.917697   1.000000   1.000000
   40       -0.155544      1.945617   1.000000   1.000000
   41       -0.147638      5.363678   1.000000   0.000000
   42       -0.144162      5.719275   1.000000   0.000000
   43       -0.045589      5.795558   1.000000   0.000000
   44        0.051680      6.027222   1.000000   0.000000
   45        0.100036      6.305123   1.000000   0.000000
   46        0.100382      6.320450   1.000000   0.000000
   47        0.149965      6.439099   1.000000   0.000000
   48        0.170502      6.488714   1.000000   0.000000
   49        0.214122      6.706325   1.000000   0.000000
   50        0.251197      6.711495   1.000000   0.000000
   51        0.440831      6.740897   1.000000   0.000000
   52        0.497304      6.820239   1.000000   0.000000
   53        0.558070      6.860233   1.000000   0.000000
   54        0.864564      6.903762   1.000000   0.000000
   55        0.884573      6.955746   1.000000   0.000000
   56        0.911759      6.963472   1.000000   0.000000
   57        1.137542      7.018301   1.000000   0.000000
   58        1.184982      7.102744   1.000000   0.000000
   59        1.219680      7.179409   1.000000   0.000000
   60        1.399428      7.226239   1.000000   0.000000
   61        1.497790      7.278529   1.000000   0.000000
   62        1.527198      7.449103   1.000000   0.000000
   63        1.657725      7.488769   1.000000   0.000000
   64        1.938347      7.577017   1.000000   0.000000
   65        2.214338      7.577667   1.000000   0.000000
   66        2.221756      7.637343   1.000000   0.000000
   67        2.412995      7.661967   1.000000   0.000000
   68        2.481359      7.718140   1.000000   0.000000
   69        2.676371      7.721134   1.000000   0.000000
   70        2.714891      7.732740   1.000000   0.000000
   71        2.767010      7.860618   1.000000   0.000000
   72        2.815480      7.884465   1.000000   0.000000
   73        3.167221      8.056978   1.000000   0.000000
   74        3.222360      8.152599   1.000000   0.000000
   75        3.239118      8.204397   0.999998   0.000000
   76        3.332212      8.240952   0.977110   0.000000
   77        3.430394      8.312992   0.217819   0.000000
   78        3.464041      8.313206   0.041703   0.000000
   79        4.209081      8.457982   0.000000   0.000000
   80        4.213644      8.645316   0.000000   0.000000
   81        4.881654      8.660330   0.000000   0.000000
   82        6.933587      8.678651   0.000000   0.000000
   83        7.304707      9.039315   0.000000   0.000000
   84        9.067674     10.966310   0.000000   0.000000
   85        9.200108     11.136298   0.000000   0.000000
   86        9.494275     11.533157   0.000000   0.000000
   87       10.977052     12.319179   0.000000   0.000000
   88       11.612271     13.061094   0.000000   0.000000
   89       11.700468     13.305560   0.000000   0.000000
   90       12.430740     14.596046   0.000000   0.000000
 
  0.2631579E-01  0.0000000E+00  0.0000000E+00  0.4166667E-02
    1      -15.295158    -15.153935   1.000000   1.000000
    2      -15.112663    -14.961918   1.000000   1.000000
    3      -14.898801    -14.755327   1.000000   1.000000
    4      -14.732546    -14.565029   1.000000   1.000000
    5      -14.052716    -13.892990   1.000000   1.000000
    6      -14.046498    -13.879086   1.000000   1.000000
    7      -13.965210    -13.789075   1.000000   1.000000
    8      -13.956767    -13.776055   1.000000   1.000000
    9      -13.588765    -13.506700   1.000000   1.000000
   10      -13.586021    -13.504975   1.000000   1.000000
   11       -2.770679     -1.523166   1.000000   1.000000
   12       -2.711169     -1.284116   1.000000   1.000000
   13       -2.568772     -1.275894   1.000000   1.000000
   14       -2.539161     -1.251746   1.000000   1.000000
   15       -2.497916     -1.206707   1.000000   1.000000
   16       -2.494134     -1.182385   1.000000   1.000000
   17       -2.372418     -1.117916   1.000000   1.000000
   18       -2.212875     -1.110015   1.000000   1.000000
   19       -2.211990     -0.842103   1.000000   1.000000
   20       -2.160188     -0.766312   1.000000   1.000000
   21       -2.089899     -0.663545   1.000000   1.000000
   22       -2.071596     -0.598398   1.000000   1.000000
   23       -1.929907     -0.304967   1.000000   1.000000
   24       -1.828260     -0.196380   1.000000   1.000000
   25       -1.774035     -0.081988   1.000000   1.000000
   26       -1.747609      0.150156   1.000000   1.000000
   27       -1.681599      0.247294   1.000000   1.000000
   28       -1.562776      0.387671   1.000000   1.000000
   29       -1.251705      0.425793   1.000000   1.000000
   30       -1.214330      0.594386   1.000000   1.000000
   31       -1.127084      0.638320   1.000000   1.000000
   32       -1.085138      0.746123   1.000000   1.000000
   33       -0.717543      0.794648   1.000000   1.000000
   34       -0.704951      1.018918   1.000000   1.000000
   35       -0.643323      1.352060   1.000000   1.000000
   36       -0.531840      1.367018   1.000000   1.000000
   37       -0.520123      1.422513   1.000000   1.000000
   38       -0.444194      1.524910   1.000000   1.000000
   39       -0.209160      1.915176   1.000000   1.000000
   40       -0.161785      1.944108   1.000000   1.000000
   41       -0.143553      5.374625   1.000000   0.000000
   42       -0.141259      5.721519   1.000000   0.000000
   43       -0.042073      5.800385   1.000000   0.000000
   44        0.037093      6.028799   1.000000   0.000000
   45        0.094901      6.304081   1.000000   0.000000
   46        0.102101      6.324269   1.000000   0.000000
   47        0.166734      6.438390   1.000000   0.000000
   48        0.174543      6.462320   1.000000   0.000000
   49        0.232764      6.704271   1.000000   0.000000
   50        0.250308      6.719270   1.000000   0.000000
   51        0.433442      6.723869   1.000000   0.000000
   52        0.499356      6.818210   1.000000   0.000000
   53        0.561009      6.867135   1.000000   0.000000
   54        0.864444      6.899910   1.000000   0.000000
   55        0.885308      6.952137   1.000000   0.000000
   56        0.916420      6.969791   1.000000   0.000000
   57        1.141752      6.989377   1.000000   0.000000
   58        1.164970      7.105155   1.000000   0.000000
   59        1.224741      7.203574   1.000000   0.000000
   60        1.366366      7.238880   1.000000   0.000000
   61        1.509697      7.288657   1.000000   0.000000
   62        1.513412      7.448519   1.000000   0.000000
   63        1.649639      7.487258   1.000000   0.000000
   64        1.900790      7.553566   1.000000   0.000000
   65        2.209592      7.609400   1.000000   0.000000
   66        2.221956      7.636986   1.000000   0.000000
   67        2.386359      7.667228   1.000000   0.000000
   68        2.461171      7.721972   1.000000   0.000000
   69        2.678871      7.724980   1.000000   0.000000
   70        2.711897      7.736104   1.000000   0.000000
   71        2.768875      7.863167   1.000000   0.000000
   72        2.815671      7.894029   1.000000   0.000000
   73        3.183599      8.052164   1.000000   0.000000
   74        3.230196      8.151474   0.999999   0.000000
   75        3.262676      8.204156   0.999963   0.000000
   76        3.332574      8.239091   0.976519   0.000000
   77        3.433225      8.307680   0.194754   0.000000
   78        3.455276      8.321506   0.068892   0.000000
   79        4.231165      8.457316   0.000000   0.000000
   80        4.232147      8.653889   0.000000   0.000000
   81        4.912212      8.662507   0.000000   0.000000
   82        6.945179      8.671401   0.000000   0.000000
   83        7.314392      9.049187   0.000000   0.000000
   84        9.060931     10.965983   0.000000   0.000000
   85        9.198265     11.133318   0.000000   0.000000
   86        9.500457     11.540225   0.000000   0.000000
   87       10.980295     12.297440   0.000000   0.000000
   88       11.477325     12.947567   0.000000   0.000000
   89       11.718114     13.137586   0.000000   0.000000
   90       12.747956     14.024091   0.000000   0.000000
 
  0.5263158E-01  0.0000000E+00  0.0000000E+00  0.4166667E-02
    1      -15.285386    -15.144694   1.000000   1.000000
    2      -15.103846    -14.953749   1.000000   1.000000
    3      -14.890521    -14.747616   1.000000   1.000000
    4      -14.725327    -14.558677   1.000000   1.000000
    5      -14.052869    -13.893557   1.000000   1.000000
    6      -14.047939    -13.881036   1.000000   1.000000
    7      -13.964189    -13.788077   1.000000   1.000000
    8      -13.956548    -13.776160   1.000000   1.000000
    9      -13.589054    -13.506792   1.000000   1.000000
   10      -13.586660    -13.505340   1.000000   1.000000
   11       -2.785961     -1.514306   1.000000   1.000000
   12       -2.711031     -1.314321   1.000000   1.000000
   13       -2.572574     -1.301350   1.000000   1.000000
   14       -2.555575     -1.275498   1.000000   1.000000
   15       -2.546041     -1.229245   1.000000   1.000000
   16       -2.508546     -1.182411   1.000000   1.000000
   17       -2.370928     -1.121334   1.000000   1.000000
   18       -2.240974     -1.071762   1.000000   1.000000
   19       -2.174229     -0.842171   1.000000   1.000000
   20       -2.161300     -0.821978   1.000000   1.000000
   21       -2.139276     -0.624393   1.000000   1.000000
   22       -2.098960     -0.602720   1.000000   1.000000
   23       -1.872834     -0.343515   1.000000   1.000000
   24       -1.828662     -0.210930   1.000000   1.000000
   25       -1.808316     -0.065579   1.000000   1.000000
   26       -1.746619      0.123455   1.000000   1.000000
   27       -1.685577      0.244567   1.000000   1.000000
   28       -1.461796      0.301463   1.000000   1.000000
   29       -1.302216      0.440144   1.000000   1.000000
   30       -1.208256      0.632844   1.000000   1.000000
   31       -1.075179      0.635686   1.000000   1.000000
   32       -1.074540      0.756643   1.000000   1.000000
   33       -0.746295      0.806241   1.000000   1.000000
   34       -0.734424      1.029148   1.000000   1.000000
   35       -0.651974      1.361445   1.000000   1.000000
   36       -0.525619      1.368300   1.000000   1.000000
   37       -0.507207      1.425726   1.000000   1.000000
   38       -0.449950      1.520892   1.000000   1.000000
   39       -0.200874      1.907681   1.000000   1.000000
   40       -0.178897      1.939604   1.000000   1.000000
   41       -0.134561      5.405292   1.000000   0.000000
   42       -0.132364      5.728167   1.000000   0.000000
   43       -0.029554      5.814594   1.000000   0.000000
   44        0.008062      6.032974   1.000000   0.000000
   45        0.087475      6.300223   1.000000   0.000000
   46        0.107162      6.335615   1.000000   0.000000
   47        0.185379      6.401200   1.000000   0.000000
   48        0.202447      6.437195   1.000000   0.000000
   49        0.247469      6.679566   1.000000   0.000000
   50        0.278319      6.691301   1.000000   0.000000
   51        0.412297      6.730996   1.000000   0.000000
   52        0.506228      6.820050   1.000000   0.000000
   53        0.569045      6.882653   1.000000   0.000000
   54        0.863088      6.884745   1.000000   0.000000
   55        0.887325      6.923827   1.000000   0.000000
   56        0.930062      6.962097   1.000000   0.000000
   57        1.114039      6.988138   1.000000   0.000000
   58        1.148901      7.112644   1.000000   0.000000
   59        1.239046      7.260145   1.000000   0.000000
   60        1.279926      7.261479   1.000000   0.000000
   61        1.461371      7.308075   1.000000   0.000000
   62        1.544616      7.444815   1.000000   0.000000
   63        1.624938      7.482771   1.000000   0.000000
   64        1.809982      7.540051   1.000000   0.000000
   65        2.193436      7.636686   1.000000   0.000000
   66        2.215541      7.648669   1.000000   0.000000
   67        2.315233      7.678939   1.000000   0.000000
   68        2.407355      7.724307   1.000000   0.000000
   69        2.680799      7.744164   1.000000   0.000000
   70        2.707177      7.745437   1.000000   0.000000
   71        2.774517      7.870883   1.000000   0.000000
   72        2.815281      7.924293   1.000000   0.000000
   73        3.227889      8.038713   1.000000   0.000000
   74        3.249246      8.148146   0.999993   0.000000
   75        3.306503      8.204503   0.996757   0.000000
   76        3.332620      8.234779   0.976364   0.000000
   77        3.430575      8.293736   0.215292   0.000000
   78        3.459708      8.346601   0.053551   0.000000
   79        4.285495      8.454956   0.000000   0.000000
   80        4.294319      8.634939   0.000000   0.000000
   81        4.999876      8.650659   0.000000   0.000000
   82        6.979473      8.709727   0.000000   0.000000
   83        7.343284      9.078335   0.000000   0.000000
   84        9.040421     10.965147   0.000000   0.000000
   85        9.192946     11.124063   0.000000   0.000000
   86        9.518909     11.561388   0.000000   0.000000
   87       11.012245     12.323704   0.000000   0.000000
   88       11.469716     12.982659   0.000000   0.000000
   89       12.168265     13.359557   0.000000   0.000000
   90       12.621575     14.524557   0.000000   0.000000
 
  0.7894737E-01  0.0000000E+00  0.0000000E+00  0.4166667E-02
    1      -15.269208    -15.129389   1.000000   1.000000
    2      -15.089342    -14.940316   1.000000   1.000000
    3      -14.876851    -14.734876   1.000000   1.000000
    4      -14.713442    -14.548227   1.000000   1.000000
    5      -14.053162    -13.894526   1.000000   1.000000
    6      -14.050404    -13.884357   1.000000   1.000000
    7      -13.962461    -13.786392   1.000000   1.000000
    8      -13.956188    -13.776348   1.000000   1.000000
    9      -13.589532    -13.506932   1.000000   1.000000
   10      -13.587691    -13.505906   1.000000   1.000000
   11       -2.812988     -1.499906   1.000000   1.000000
   12       -2.713790     -1.388211   1.000000   1.000000
   13       -2.622117     -1.329527   1.000000   1.000000
   14       -2.573647     -1.279222   1.000000   1.000000
   15       -2.557822     -1.264994   1.000000   1.000000
   16       -2.527146     -1.182755   1.000000   1.000000
   17       -2.375447     -1.128032   1.000000   1.000000
   18       -2.285716     -1.036077   1.000000   1.000000
   19       -2.208267     -0.874191   1.000000   1.000000
   20       -2.199096     -0.842261   1.000000   1.000000
   21       -2.130900     -0.612390   1.000000   1.000000
   22       -2.082107     -0.591457   1.000000   1.000000
   23       -1.844936     -0.403487   1.000000   1.000000
   24       -1.834092     -0.235594   1.000000   1.000000
   25       -1.824503     -0.040825   1.000000   1.000000
   26       -1.702275      0.097233   1.000000   1.000000
   27       -1.691109      0.199444   1.000000   1.000000
   28       -1.361927      0.241395   1.000000   1.000000
   29       -1.343920      0.460918   1.000000   1.000000
   30       -1.195810      0.618774   1.000000   1.000000
   31       -1.059873      0.689623   1.000000   1.000000
   32       -1.027851      0.699071   1.000000   1.000000
   33       -0.797027      0.860177   1.000000   1.000000
   34       -0.760145      1.038021   1.000000   1.000000
   35       -0.663419      1.351580   1.000000   1.000000
   36       -0.533548      1.390576   1.000000   1.000000
   37       -0.481649      1.439892   1.000000   1.000000
   38       -0.458320      1.520998   1.000000   1.000000
   39       -0.203072      1.895457   1.000000   1.000000
   40       -0.189170      1.932129   1.000000   1.000000
   41       -0.127919      5.448769   1.000000   0.000000
   42       -0.116921      5.738958   1.000000   0.000000
   43       -0.022208      5.837402   1.000000   0.000000
   44       -0.004658      6.038198   1.000000   0.000000
   45        0.084413      6.288387   1.000000   0.000000
   46        0.115143      6.335602   1.000000   0.000000
   47        0.199669      6.354095   1.000000   0.000000
   48        0.242247      6.437527   1.000000   0.000000
   49        0.243960      6.627729   1.000000   0.000000
   50        0.337996      6.653443   1.000000   0.000000
   51        0.380502      6.737812   1.000000   0.000000
   52        0.520040      6.829167   1.000000   0.000000
   53        0.579999      6.847488   1.000000   0.000000
   54        0.856816      6.872441   1.000000   0.000000
   55        0.890142      6.906261   1.000000   0.000000
   56        0.951365      6.991569   1.000000   0.000000
   57        1.044545      7.014847   1.000000   0.000000
   58        1.092664      7.126502   1.000000   0.000000
   59        1.222033      7.275498   1.000000   0.000000
   60        1.259298      7.319565   1.000000   0.000000
   61        1.394463      7.330406   1.000000   0.000000
   62        1.538518      7.435154   1.000000   0.000000
   63        1.583210      7.475464   1.000000   0.000000
   64        1.736014      7.538731   1.000000   0.000000
   65        2.158351      7.637506   1.000000   0.000000
   66        2.189858      7.688647   1.000000   0.000000
   67        2.218547      7.693489   1.000000   0.000000
   68        2.338509      7.727644   1.000000   0.000000
   69        2.674969      7.759254   1.000000   0.000000
   70        2.708954      7.773093   1.000000   0.000000
   71        2.782829      7.883683   1.000000   0.000000
   72        2.812578      7.974036   1.000000   0.000000
   73        3.271085      8.019459   0.999901   0.000000
   74        3.290246      8.142803   0.999265   0.000000
   75        3.314808      8.207188   0.993487   0.000000
   76        3.330324      8.232361   0.979638   0.000000
   77        3.393904      8.276068   0.596877   0.000000
   78        3.546122      8.386934   0.000025   0.000000
   79        4.367753      8.450052   0.000000   0.000000
   80        4.390546      8.604506   0.000000   0.000000
   81        5.134782      8.618766   0.000000   0.000000
   82        7.035000      8.778573   0.000000   0.000000
   83        7.390891      9.125959   0.000000   0.000000
   84        9.005516     10.964217   0.000000   0.000000
   85        9.184733     11.106382   0.000000   0.000000
   86        9.549396     11.596126   0.000000   0.000000
   87       11.150309     12.464862   0.000000   0.000000
   88       11.579525     13.251285   0.000000   0.000000
   89       12.170244     13.773823   0.000000   0.000000
   90       13.334361     14.262009   0.000000   0.000000
 
  0.1052632E+00  0.0000000E+00  0.0000000E+00  0.4166667E-02
    1      -15.246869    -15.108236   1.000000   1.000000
    2      -15.069388    -14.921837   1.000000   1.000000
    3      -14.858080    -14.717377   1.000000   1.000000
    4      -14.697203    -14.533958   1.000000   1.000000
    5      -14.054081    -13.896081   1.000000   1.000000
    6      -14.053787    -13.889242   1.000000   1.000000
    7      -13.960179    -13.784156   1.000000   1.000000
    8      -13.955901    -13.776822   1.000000   1.000000
    9      -13.590268    -13.507172   1.000000   1.000000
   10      -13.589191    -13.506741   1.000000   1.000000
   11       -2.850942     -1.480977   1.000000   1.000000
   12       -2.724200     -1.469080   1.000000   1.000000
   13       -2.690091     -1.367684   1.000000   1.000000
   14       -2.574832     -1.311025   1.000000   1.000000
   15       -2.569073     -1.296096   1.000000   1.000000
   16       -2.542330     -1.184040   1.000000   1.000000
   17       -2.386107     -1.135955   1.000000   1.000000
   18       -2.346872     -1.004335   1.000000   1.000000
   19       -2.276939     -0.913659   1.000000   1.000000
   20       -2.227292     -0.843455   1.000000   1.000000
   21       -2.147600     -0.630277   1.000000   1.000000
   22       -2.019402     -0.563710   1.000000   1.000000
   23       -1.861051     -0.479692   1.000000   1.000000
   24       -1.851413     -0.266500   1.000000   1.000000
   25       -1.784986     -0.012662   1.000000   1.000000
   26       -1.693939      0.081354   1.000000   1.000000
   27       -1.647284      0.096043   1.000000   1.000000
   28       -1.372912      0.237425   1.000000   1.000000
   29       -1.279279      0.483785   1.000000   1.000000
   30       -1.166872      0.592343   1.000000   1.000000
   31       -1.041905      0.628147   1.000000   1.000000
   32       -0.990300      0.746865   1.000000   1.000000
   33       -0.850507      0.890102   1.000000   1.000000
   34       -0.790841      1.039083   1.000000   1.000000
   35       -0.673609      1.336841   1.000000   1.000000
   36       -0.542203      1.414544   1.000000   1.000000
   37       -0.468244      1.472157   1.000000   1.000000
   38       -0.458634      1.533486   1.000000   1.000000
   39       -0.230450      1.879035   1.000000   1.000000
   40       -0.176241      1.921665   1.000000   1.000000
   41       -0.122905      5.492838   1.000000   0.000000
   42       -0.101776      5.753435   1.000000   0.000000
   43       -0.048121      5.867624   1.000000   0.000000
   44        0.032545      6.042480   1.000000   0.000000
   45        0.085352      6.250587   1.000000   0.000000
   46        0.124851      6.302066   1.000000   0.000000
   47        0.213250      6.378857   1.000000   0.000000
   48        0.234169      6.440984   1.000000   0.000000
   49        0.282120      6.584811   1.000000   0.000000
   50        0.346637      6.591285   1.000000   0.000000
   51        0.404056      6.742082   1.000000   0.000000
   52        0.543951      6.773625   1.000000   0.000000
   53        0.590971      6.843993   1.000000   0.000000
   54        0.838126      6.883719   1.000000   0.000000
   55        0.893101      6.927317   1.000000   0.000000
   56        0.933074      7.031914   1.000000   0.000000
   57        0.957963      7.043014   1.000000   0.000000
   58        0.980023      7.149388   1.000000   0.000000
   59        1.247935      7.284088   1.000000   0.000000
   60        1.276343      7.316717   1.000000   0.000000
   61        1.328559      7.396208   1.000000   0.000000
   62        1.444061      7.419044   1.000000   0.000000
   63        1.528854      7.465661   1.000000   0.000000
   64        1.751605      7.547831   1.000000   0.000000
   65        2.091407      7.639786   1.000000   0.000000
   66        2.114932      7.691549   1.000000   0.000000
   67        2.139277      7.731322   1.000000   0.000000
   68        2.278902      7.740077   1.000000   0.000000
   69        2.659290      7.776568   1.000000   0.000000
   70        2.721049      7.809295   1.000000   0.000000
   71        2.791423      7.900527   1.000000   0.000000
   72        2.806161      7.998253   1.000000   0.000000
   73        3.289832      8.029613   0.999286   0.000000
   74        3.291480      8.135940   0.999149   0.000000
   75        3.324309      8.210826   0.986562   0.000000
   76        3.339033      8.241595   0.963519   0.000000
   77        3.372822      8.260501   0.799987   0.000000
   78        3.670475      8.440137   0.000000   0.000000
   79        4.470775      8.441667   0.000000   0.000000
   80        4.509697      8.564498   0.000000   0.000000
   81        5.305627      8.578384   0.000000   0.000000
   82        7.109539      8.862172   0.000000   0.000000
   83        7.456406      9.191570   0.000000   0.000000
   84        8.955615     10.963915   0.000000   0.000000
   85        9.174569     11.078605   0.000000   0.000000
   86        9.591760     11.644155   0.000000   0.000000
   87       11.304428     12.817336   0.000000   0.000000
   88       12.008389     13.953922   0.000000   0.000000
   89       12.172800     14.115697   0.000000   0.000000
   90       13.537248     14.984019   0.000000   0.000000
 
  0.1315789E+00  0.0000000E+00  0.0000000E+00  0.4166667E-02
    1      -15.218562    -15.081412   1.000000   1.000000
    2      -15.044277    -14.898589   1.000000   1.000000
    3      -14.834449    -14.695332   1.000000   1.000000
    4      -14.676831    -14.516051   1.000000   1.000000
    5      -14.059037    -13.898263   1.000000   1.000000
    6      -14.054790    -13.895761   1.000000   1.000000
    7      -13.957382    -13.781394   1.000000   1.000000
    8      -13.955759    -13.777659   1.000000   1.000000
    9      -13.591171    -13.507850   1.000000   1.000000
   10      -13.591138    -13.507369   1.000000   1.000000
   11       -2.896563     -1.554390   1.000000   1.000000
   12       -2.756417     -1.461798   1.000000   1.000000
   13       -2.746467     -1.414383   1.000000   1.000000
   14       -2.597240     -1.360796   1.000000   1.000000
   15       -2.559351     -1.337158   1.000000   1.000000
   16       -2.546962     -1.187035   1.000000   1.000000
   17       -2.419250     -1.137753   1.000000   1.000000
   18       -2.404222     -0.975969   1.000000   1.000000
   19       -2.343741     -0.934668   1.000000   1.000000
   20       -2.253146     -0.849696   1.000000   1.000000
   21       -2.168927     -0.656827   1.000000   1.000000
   22       -1.954707     -0.566798   1.000000   1.000000
   23       -1.885383     -0.539782   1.000000   1.000000
   24       -1.864724     -0.295332   1.000000   1.000000
   25       -1.751616     -0.028503   1.000000   1.000000
   26       -1.689127      0.041393   1.000000   1.000000
   27       -1.589940      0.077756   1.000000   1.000000
   28       -1.389317      0.230257   1.000000   1.000000
   29       -1.236961      0.496975   1.000000   1.000000
   30       -1.104516      0.552337   1.000000   1.000000
   31       -1.027236      0.556881   1.000000   1.000000
   32       -0.963134      0.801824   1.000000   1.000000
   33       -0.903380      0.888259   1.000000   1.000000
   34       -0.819052      1.032019   1.000000   1.000000
   35       -0.677236      1.316918   1.000000   1.000000
   36       -0.549643      1.436603   1.000000   1.000000
   37       -0.479274      1.523289   1.000000   1.000000
   38       -0.438477      1.564024   1.000000   1.000000
   39       -0.258543      1.859352   1.000000   1.000000
   40       -0.163679      1.908103   1.000000   1.000000
   41       -0.118739      5.520661   1.000000   0.000000
   42       -0.097300      5.770896   1.000000   0.000000
   43       -0.060580      5.903854   1.000000   0.000000
   44        0.077789      6.044545   1.000000   0.000000
   45        0.088045      6.217789   1.000000   0.000000
   46        0.133356      6.286042   1.000000   0.000000
   47        0.222914      6.408178   1.000000   0.000000
   48        0.223155      6.445860   1.000000   0.000000
   49        0.274634      6.521069   1.000000   0.000000
   50        0.354382      6.559553   1.000000   0.000000
   51        0.466875      6.709850   1.000000   0.000000
   52        0.580289      6.748338   1.000000   0.000000
   53        0.600766      6.863338   1.000000   0.000000
   54        0.745573      6.910645   1.000000   0.000000
   55        0.799787      6.945933   1.000000   0.000000
   56        0.860247      7.069147   1.000000   0.000000
   57        0.896084      7.076442   1.000000   0.000000