       N       E                     dE             d eps       ncg     rms          ort
SDA:   1     0.244867985747E+02    0.24487E+02   -0.11440E+03 21600   0.286E+03 0.000E+00
DMP:   2    -0.636152900907E+02   -0.88102E+02   -0.65310E+02 21600   0.105E+03 0.152E+03
DMP:   3    -0.109773925289E+03   -0.46159E+02   -0.23611E+02 21600   0.337E+02 0.662E+02
DMP:   4    -0.125231388137E+03   -0.15457E+02   -0.70965E+01 21600   0.110E+02 0.176E+02
DMP:   5    -0.130047492621E+03   -0.48161E+01   -0.32565E+01 21600   0.581E+01 0.609E+01
DMP:   6    -0.132489239451E+03   -0.24417E+01   -0.16251E+01 21600   0.254E+01 0.398E+01
DMP:   7    -0.133725974938E+03   -0.12367E+01   -0.77687E+00 21600   0.114E+01 0.210E+01
DMP:   8    -0.134347725920E+03   -0.62175E+00   -0.38187E+00 21600   0.523E+00 0.113E+01
DMP:   9    -0.134642480601E+03   -0.29475E+00   -0.15769E+00 21600   0.198E+00 0.514E+00
DMP:  10    -0.134761948862E+03   -0.11947E+00   -0.60715E-01 21600   0.746E-01 0.202E+00
DMP:  11    -0.134808045635E+03   -0.46097E-01   -0.23039E-01 21600   0.277E-01 0.783E-01
DMP:  12    -0.134825395994E+03   -0.17350E-01   -0.84170E-02 21600   0.100E-01 0.289E-01
DMP:  13    -0.134831704578E+03   -0.63086E-02   -0.31444E-02 21600   0.388E-02 0.104E-01
DMP:  14    -0.134834061872E+03   -0.23573E-02   -0.11626E-02 21600   0.141E-02 0.392E-02
DMP:  15    -0.134834917328E+03   -0.85546E-03   -0.40035E-03 21600   0.478E-03 0.137E-02
DMP:  16    -0.134835208236E+03   -0.29091E-03   -0.13698E-03 21600   0.169E-03 0.453E-03
DMP:  17    -0.134835306372E+03   -0.98137E-04   -0.44476E-04 21600   0.546E-04 0.148E-03
DMP:  18    -0.134835337032E+03   -0.30660E-04   -0.13449E-04 21600   0.176E-04 0.421E-04
DMP:  19    -0.134835346118E+03   -0.90854E-05   -0.43905E-05 21600   0.647E-05 0.118E-04
   1 F= -.13483535E+03 E0= -.13483203E+03  d E =-.663487E-02  mag=    36.0000
