 vasp.6.1.0 28Jan20 (build Oct 05 2020 22:43:53) complex                        
  
 executed on             LinuxIFC date 2022.09.16  19:36:23
 running on  120 total cores
 distrk:  each k-point on   60 cores,    2 groups
 distr:  one band on NCORE=   4 cores,   15 groups


--------------------------------------------------------------------------------------------------------


 INCAR:
 POTCAR:    PAW_PBE Mn 06Sep2000                  
 POTCAR:    PAW_PBE O 08Apr2002                   
 -----------------------------------------------------------------------------
|                                                                             |
|           W    W    AA    RRRRR   N    N  II  N    N   GGGG   !!!           |
|           W    W   A  A   R    R  NN   N  II  NN   N  G    G  !!!           |
|           W    W  A    A  R    R  N N  N  II  N N  N  G       !!!           |
|           W WW W  AAAAAA  RRRRR   N  N N  II  N  N N  G  GGG   !            |
|           WW  WW  A    A  R   R   N   NN  II  N   NN  G    G                |
|           W    W  A    A  R    R  N    N  II  N    N   GGGG   !!!           |
|                                                                             |
|     For optimal performance we recommend to set                             |
|       NCORE = 4 - approx SQRT(number of cores).                             |
|     NCORE specifies how many cores store one orbital (NPAR=cpu/NCORE).      |
|     This setting can greatly improve the performance of VASP for DFT.       |
|     The default, NCORE=1 might be grossly inefficient on modern             |
|     multi-core architectures or massively parallel machines. Do your        |
|     own testing!!!!                                                         |
|     Unfortunately you need to use the default for GW and RPA                |
|     calculations (for HF NCORE is supported but not extensively tested      |
|     yet).                                                                   |
|                                                                             |
 -----------------------------------------------------------------------------

 POTCAR:    PAW_PBE Mn 06Sep2000                  
   SHA256 =  791c87526310ff945dc83749a51ee60ee299d345ff72743aeb14609b9ed68bfc Mn/POTCAR             
   COPYR  = (c) Copyright 06Sep2000 Georg Kresse                                                    
   COPYR  = This file is part of the software VASP. Any use, copying, and all other rights are regul
   COPYR  = If you do not have a valid VASP license, you may not use, copy or distribute this file. 
   VRHFIN =Mn: d6 s1                                                                                
   LEXCH  = PE                                                                                      
   EATOM  =   416.7541 eV,   30.6306 Ry                                                             
                                                                                                    
   TITEL  = PAW_PBE Mn 06Sep2000                                                                    
   LULTRA =        F    use ultrasoft PP ?                                                          
   IUNSCR =        1    unscreen: 0-lin 1-nonlin 2-no                                               
   RPACOR =    2.000    partial core radius                                                         
   POMASS =   54.938; ZVAL   =    7.000    mass and valenz                                          
   RCORE  =    2.300    outmost cutoff radius                                                       
   RWIGS  =    2.500; RWIGS  =    1.323    wigner-seitz radius (au A)                               
   ENMAX  =  269.864; ENMIN  =  202.398 eV                                                          
   RCLOC  =    1.725    cutoff for local pot                                                        
   LCOR   =        T    correct aug charges                                                         
   LPAW   =        T    paw PP                                                                      
   EAUG   =  500.711                                                                                
   DEXC   =    0.000                                                                                
   RMAX   =    2.343    core radius for proj-oper                                                   
   RAUG   =    1.300    factor for augmentation sphere                                              
   RDEP   =    2.338    radius for radial grids                                                     
   RDEPT  =    1.911    core radius for aug-charge                                                  
                                                                                                    
   Atomic configuration                                                                             
    9 entries                                                                                       
     n  l   j            E        occ.                                                              
     1  0  0.50     -6424.8288   2.0000                                                             
     2  0  0.50      -739.1154   2.0000                                                             
     2  1  1.50      -625.3949   6.0000                                                             
     3  0  0.50       -81.6100   2.0000                                                             
     3  1  1.50       -50.4667   6.0000                                                             
     3  2  2.50        -3.3745   6.0000                                                             
     4  0  0.50        -4.1331   1.0000                                                             
     4  1  0.50        -4.0817   0.0000                                                             
     4  3  2.50        -1.3606   0.0000                                                             
   Description                                                                                      
     l       E           TYP  RCUT    TYP  RCUT                                                     
     2     -3.3744664     23  2.300                                                                 
     2     -4.7350490     23  2.300                                                                 
     0     -4.1331408     23  2.300                                                                 
     0      7.6656614     23  2.300                                                                 
     1     -2.7211652     23  2.300                                                                 
     1     20.4087390     23  2.300                                                                 
  local pseudopotential read in
  partial core-charges read in
  partial kinetic energy density read in
  atomic valenz-charges read in
  non local Contribution for L=           2  read in
    real space projection operators read in
  non local Contribution for L=           2  read in
    real space projection operators read in
  non local Contribution for L=           0  read in
    real space projection operators read in
  non local Contribution for L=           0  read in
    real space projection operators read in
  non local Contribution for L=           1  read in
    real space projection operators read in
  non local Contribution for L=           1  read in
    real space projection operators read in
    PAW grid and wavefunctions read in
 
   number of l-projection  operators is LMAX  =           6
   number of lm-projection operators is LMMAX =          18
 
 POTCAR:    PAW_PBE O 08Apr2002                   
   SHA256 =  818f92134a0a090dccd8ba1447fa70422a3b330e708bb4f08108d8ae51209ddf O/POTCAR              
   COPYR  = (c) Copyright 08Apr2002 Georg Kresse                                                    
   COPYR  = This file is part of the software VASP. Any use, copying, and all other rights are regul
   COPYR  = If you do not have a valid VASP license, you may not use, copy or distribute this file. 
   VRHFIN =O: s2p4                                                                                  
   LEXCH  = PE                                                                                      
   EATOM  =   432.3788 eV,   31.7789 Ry                                                             
                                                                                                    
   TITEL  = PAW_PBE O 08Apr2002                                                                     
   LULTRA =        F    use ultrasoft PP ?                                                          
   IUNSCR =        1    unscreen: 0-lin 1-nonlin 2-no                                               
   RPACOR =    1.200    partial core radius                                                         
   POMASS =   16.000; ZVAL   =    6.000    mass and valenz                                          
   RCORE  =    1.520    outmost cutoff radius                                                       
   RWIGS  =    1.550; RWIGS  =    0.820    wigner-seitz radius (au A)                               
   ENMAX  =  400.000; ENMIN  =  300.000 eV                                                          
   ICORE  =        2    local potential                                                             
   LCOR   =        T    correct aug charges                                                         
   LPAW   =        T    paw PP                                                                      
   EAUG   =  605.392                                                                                
   DEXC   =    0.000                                                                                
   RMAX   =    1.553    core radius for proj-oper                                                   
   RAUG   =    1.300    factor for augmentation sphere                                              
   RDEP   =    1.550    radius for radial grids                                                     
   RDEPT  =    1.329    core radius for aug-charge                                                  
                                                                                                    
   Atomic configuration                                                                             
    4 entries                                                                                       
     n  l   j            E        occ.                                                              
     1  0  0.50      -514.6923   2.0000                                                             
     2  0  0.50       -23.9615   2.0000                                                             
     2  1  0.50        -9.0305   4.0000                                                             
     3  2  1.50        -9.5241   0.0000                                                             
   Description                                                                                      
     l       E           TYP  RCUT    TYP  RCUT                                                     
     0    -23.9615318     23  1.200                                                                 
     0     -9.5240782     23  1.200                                                                 
     1     -9.0304911     23  1.520                                                                 
     1      8.1634956     23  1.520                                                                 
     2     -9.5240782      7  1.500                                                                 
  local pseudopotential read in
  partial core-charges read in
  partial kinetic energy density read in
  kinetic energy density of atom read in
  atomic valenz-charges read in
  non local Contribution for L=           0  read in
    real space projection operators read in
  non local Contribution for L=           0  read in
    real space projection operators read in
  non local Contribution for L=           1  read in
    real space projection operators read in
  non local Contribution for L=           1  read in
    real space projection operators read in
    PAW grid and wavefunctions read in
 
   number of l-projection  operators is LMAX  =           4
   number of lm-projection operators is LMMAX =           8
 
 -----------------------------------------------------------------------------
|                                                                             |
|               ----> ADVICE to this user running VASP <----                  |
|                                                                             |
|     You have a (more or less) 'large supercell' and for larger cells it     |
|     might be more efficient to use real-space projection operators.         |
|     Therefore, try LREAL= Auto in the INCAR file.                           |
|     Mind: For very accurate calculation, you might also keep the            |
|     reciprocal projection scheme (i.e. LREAL=.FALSE.).                      |
|                                                                             |
 -----------------------------------------------------------------------------

  PAW_PBE Mn 06Sep2000                  :
 energy of atom  1       EATOM= -416.7541
 kinetic energy error for atom=    0.0024 (will be added to EATOM!!)
  PAW_PBE O 08Apr2002                   :
 energy of atom  2       EATOM= -432.3788
 kinetic energy error for atom=    0.0208 (will be added to EATOM!!)
 
 
 POSCAR: Mn  O
  positions in direct lattice
  No initial velocities read in
 exchange correlation table for  LEXCH =        8
   RHO(1)=    0.500       N(1)  =     2000
   RHO(2)=  100.500       N(2)  =     4000
 


--------------------------------------------------------------------------------------------------------


 ion  position               nearest neighbor table
   1  0.500  0.732  0.133-  16 1.92  16 1.92  15 2.00   9 2.03  12 2.07   8 3.13   8 3.13
   2  0.500  0.268  0.867-  18 1.92  18 1.92  10 2.00   9 2.03  11 2.07   7 3.13   7 3.13
   3  0.500  0.768  0.633-  13 1.92  13 1.92  11 2.00  17 2.03  10 2.07   5 3.13   5 3.13
   4  0.500  0.232  0.367-  14 1.92  14 1.92  12 2.00  17 2.03  15 2.07   6 3.13   6 3.13
   5  0.000  0.753  0.397-  13 2.15  12 2.18  12 2.18  14 2.34  17 2.56  17 2.56   3 3.13   3 3.13

   6  0.000  0.247  0.603-  14 2.15  11 2.18  11 2.18  13 2.34  17 2.56  17 2.56   4 3.13   4 3.13

   7  0.000  0.253  0.103-  18 2.15  15 2.18  15 2.18  16 2.34   9 2.56   9 2.56   2 3.13   2 3.13

   8  0.000  0.747  0.897-  16 2.15  10 2.18  10 2.18  18 2.34   9 2.56   9 2.56   1 3.13   1 3.13

   9  0.500  0.000  0.000-   1 2.03   2 2.03   8 2.56   7 2.56   7 2.56   8 2.56
  10  0.500  0.622  0.812-   2 2.00   3 2.07   8 2.18   8 2.18
  11  0.500  0.122  0.688-   3 2.00   2 2.07   6 2.18   6 2.18
  12  0.500  0.878  0.312-   4 2.00   1 2.07   5 2.18   5 2.18
  13  0.000  0.814  0.596-   3 1.92   3 1.92   5 2.15   6 2.34
  14  0.000  0.186  0.404-   4 1.92   4 1.92   6 2.15   5 2.34
  15  0.500  0.378  0.188-   1 2.00   4 2.07   7 2.18   7 2.18
  16  0.000  0.686  0.096-   1 1.92   1 1.92   8 2.15   7 2.34
  17  0.500  0.500  0.500-   3 2.03   4 2.03   5 2.56   6 2.56   5 2.56   6 2.56
  18  0.000  0.314  0.904-   2 1.92   2 1.92   7 2.15   8 2.34
 
  LATTYP: Found a simple orthorhombic cell.
 ALAT       =     3.7168995800
 B/A-ratio  =     1.4549111603
 C/A-ratio  =     2.8731767163
  
  Lattice vectors:
  
 A1 = (   3.7168995800,   0.0000000000,   0.0000000000)
 A2 = (   0.0000000000,   5.4077586807,   0.0000000000)
 A3 = (   0.0000000000,   0.0000000000,  10.6793093300)


Analysis of symmetry for initial positions (statically):
=====================================================================
 Subroutine PRICEL returns:
 Original cell was already a primitive cell.
 

 Routine SETGRP: Setting up the symmetry group for a 
 simple orthorhombic supercell.


 Subroutine GETGRP returns: Found  8 space group operations
 (whereof  4 operations were pure point group operations)
 out of a pool of  8 trial point group operations.


The static configuration has the point symmetry C_2h.
 The point group associated with its full space group is D_2h.


Analysis of symmetry for dynamics (positions and initial velocities):
=====================================================================
 Subroutine PRICEL returns:
 Original cell was already a primitive cell.
 

 Routine SETGRP: Setting up the symmetry group for a 
 simple orthorhombic supercell.


 Subroutine GETGRP returns: Found  8 space group operations
 (whereof  4 operations were pure point group operations)
 out of a pool of  8 trial point group operations.


The dynamic configuration has the point symmetry C_2h.
 The point group associated with its full space group is D_2h.


Analysis of structural, dynamic, and magnetic symmetry:
=====================================================================
 Subroutine PRICEL returns:
 Original cell was already a primitive cell.
 

 Routine SETGRP: Setting up the symmetry group for a 
 simple orthorhombic supercell.


 Subroutine GETGRP returns: Found  8 space group operations
 (whereof  4 operations were pure point group operations)
 out of a pool of  8 trial point group operations.


The magnetic configuration has the point symmetry C_2h.
 The point group associated with its full space group is D_2h.


 Subroutine INISYM returns: Found  8 space group operations
 (whereof  4 operations are pure point group operations),
 and found     1 'primitive' translations


----------------------------------------------------------------------------------------

                                     Primitive cell                                     

  volume of cell :     214.6551

  direct lattice vectors                    reciprocal lattice vectors
     3.716899580  0.000000000  0.000000000     0.269041436 -0.000000000  0.000000000
     0.000000000  5.407758681  0.000000000     0.000000000  0.184919494  0.000000000
     0.000000000  0.000000000 10.679309330    -0.000000000 -0.000000000  0.093639014

  length of vectors
     3.716899580  5.407758681 10.679309330     0.269041436  0.184919494  0.093639014

  position of ions in fractional coordinates (direct lattice)
     0.500000000  0.731728925  0.132781145
     0.500000000  0.268271075  0.867218855
     0.500000000  0.768271075  0.632781145
     0.500000000  0.231728925  0.367218855
     0.000000000  0.752980995  0.397266325
     1.000000000  0.247019005  0.602733675
     0.000000000  0.252980995  0.102733675
     0.000000000  0.747019005  0.897266325
     0.500000000  0.000000000  0.000000000
     0.500000000  0.622026635  0.812091675
     0.500000000  0.122026635  0.687908325
     0.500000000  0.877973365  0.312091675
     1.000000000  0.814106895  0.596202835
     1.000000000  0.185893105  0.403797165
     0.500000000  0.377973365  0.187908325
     0.000000000  0.685893105  0.096202835
     0.500000000  0.500000000  0.500000000
     0.000000000  0.314106895  0.903797165

  ion indices of the primitive-cell ions
   primitive index   ion index
                 1           1
                 2           2
                 3           3
                 4           4
                 5           5
                 6           6
                 7           7
                 8           8
                 9           9
                10          10
                11          11
                12          12
                13          13
                14          14
                15          15
                16          16
                17          17
                18          18

----------------------------------------------------------------------------------------

 
 
 KPOINTS: Line_mode KPOINTS file                  
  interpolating k-points between supplied coordinates
  k-points in reciprocal lattice
Space group operators:
 irot       det(A)        alpha          n_x          n_y          n_z        tau_x        tau_y        tau_z
    1     1.000000     0.000001     1.000000     0.000000     0.000000     0.000000     0.000000     0.000000
    2    -1.000000     0.000001     1.000000     0.000000     0.000000     0.000000     0.000000     0.000000
    3     1.000000   180.000000     1.000000    -0.000000     0.000000     0.000000     0.000000     0.000000
    4    -1.000000   180.000000     1.000000    -0.000000     0.000000     0.000000     0.000000     0.000000
    5     1.000000   179.999999    -0.000000    -0.000000     1.000000     0.000000    -0.500000    -0.500000
    6    -1.000000   179.999999    -0.000000    -0.000000     1.000000     0.000000    -0.500000    -0.500000
    7     1.000000   180.000000     0.000000     1.000000     0.000000     0.000000    -0.500000    -0.500000
    8    -1.000000   180.000000     0.000000     1.000000     0.000000     0.000000    -0.500000    -0.500000


--------------------------------------------------------------------------------------------------------




 Dimension of arrays:
   k-points           NKPTS =    240   k-points in BZ     NKDIM =    240   number of bands    NBANDS=     90
   number of dos      NEDOS =    301   number of ions     NIONS =     18
   non local maximal  LDIM  =      6   non local SUM 2l+1 LMDIM =     18
   total plane-waves  NPLWV =  43200
   max r-space proj   IRMAX =      1   max aug-charges    IRDMAX=   7598
   dimension x,y,z NGX =    24 NGY =   30 NGZ =   60
   dimension x,y,z NGXF=    48 NGYF=   60 NGZF=  120
   support grid    NGXF=    48 NGYF=   60 NGZF=  120
   ions per type =               8  10
   NGX,Y,Z   is equivalent  to a cutoff of  10.73,  9.22,  9.34 a.u.
   NGXF,Y,Z  is equivalent  to a cutoff of  21.47, 18.45, 18.68 a.u.

 SYSTEM =  unknown system                          
 POSCAR =  Mn  O                                   

 Startparameter for this run:
   NWRITE =      2    write-flag & timer
   PREC   = n         normal or accurate (medium, high low for compatibility)
   ISTART =      1    job   : 0-new  1-cont  2-samecut
   ICHARG =     11    charge: 1-file 2-atom 10-const
   ISPIN  =      2    spin polarized calculation?
   LNONCOLLINEAR =      F non collinear calculations
   LSORBIT =      F    spin-orbit coupling
   INIWAV =      1    electr: 0-lowe 1-rand  2-diag
   LASPH  =      F    aspherical Exc in radial PAW
   METAGGA=      F    non-selfconsistent MetaGGA calc.

 Electronic Relaxation 1
   ENCUT  =  520.0 eV  38.22 Ry    6.18 a.u.   6.91 10.05 19.86*2*pi/ulx,y,z
   ENINI  =  520.0     initial cutoff
   ENAUG  =  605.4 eV  augmentation charge cutoff
   NELM   =    500;   NELMIN=  6; NELMDL=  0     # of ELM steps 
   EDIFF  = 0.1E-04   stopping-criterion for ELM
   LREAL  =      F    real-space projection
   NLSPLINE    = F    spline interpolate recip. space projectors
   LCOMPAT=      F    compatible to vasp.4.4
   GGA_COMPAT  = T    GGA compatible to vasp.4.4-vasp.4.6
   LMAXPAW     = -100 max onsite density
   LMAXMIX     =    4 max onsite mixed and CHGCAR
   VOSKOWN=      0    Vosko Wilk Nusair interpolation
   ROPT   =    0.00000   0.00000
 Ionic relaxation
   EDIFFG = 0.1E-03   stopping-criterion for IOM
   NSW    =      0    number of steps for IOM
   NBLOCK =      1;   KBLOCK =      1    inner block; outer block 
   IBRION =     -1    ionic relax: 0-MD 1-quasi-New 2-CG
   NFREE  =      0    steps in history (QN), initial steepest desc. (CG)
   ISIF   =      2    stress and relaxation
   IWAVPR =     10    prediction:  0-non 1-charg 2-wave 3-comb
   ISYM   =      2    0-nonsym 1-usesym 2-fastsym
   LCORR  =      T    Harris-Foulkes like correction to forces

   POTIM  = 0.5000    time-step for ionic-motion
   TEIN   =    0.0    initial temperature
   TEBEG  =    0.0;   TEEND  =   0.0 temperature during run
   SMASS  =  -3.00    Nose mass-parameter (am)
   estimated Nose-frequenzy (Omega)   =  0.10E-29 period in steps = 0.13E+47 mass=  -0.316E-27a.u.
   SCALEE = 1.0000    scale energy and forces
   NPACO  =    256;   APACO  = 16.0  distance and # of slots for P.C.
   PSTRESS=    0.0 pullay stress

  Mass of Ions in am
   POMASS =  54.94 16.00
  Ionic Valenz
   ZVAL   =   7.00  6.00
  Atomic Wigner-Seitz radii
   RWIGS  =  -1.00 -1.00
  virtual crystal weights 
   VCA    =   1.00  1.00
   NELECT =     116.0000    total number of electrons
   NUPDOWN=      -1.0000    fix difference up-down

 DOS related values:
   EMIN   =  10.00;   EMAX   =-10.00  energy-range for DOS
   EFERMI =   0.00
   ISMEAR =     0;   SIGMA  =   0.05  broadening in eV -4-tet -1-fermi 0-gaus

 Electronic relaxation 2 (details)
   IALGO  =     53    algorithm
   LDIAG  =      T    sub-space diagonalisation (order eigenvalues)
   LSUBROT=      F    optimize rotation matrix (better conditioning)
   TURBO    =      0    0=normal 1=particle mesh
   IRESTART =      0    0=no restart 2=restart with 2 vectors
   NREBOOT  =      0    no. of reboots
   NMIN     =      0    reboot dimension
   EREF     =   0.00    reference energy to select bands
   IMIX   =      4    mixing-type and parameters
     AMIX     =   0.20;   BMIX     =  0.00
     AMIX_MAG =   0.80;   BMIX_MAG =  0.00
     AMIN     =   0.10
     WC   =   100.;   INIMIX=   1;  MIXPRE=   1;  MAXMIX= -45

 Intra band minimization:
   WEIMIN = 0.0000     energy-eigenvalue tresh-hold
   EBREAK =  0.28E-07  absolut break condition
   DEPER  =   0.30     relativ break condition  

   TIME   =   0.40     timestep for ELM

  volume/ion in A,a.u.               =      11.93        80.48
  Fermi-wavevector in a.u.,A,eV,Ry     =   1.333461  2.519876 24.192776  1.778119
  Thomas-Fermi vector in A             =   2.462318
 
 Write flags
   LWAVE        =      F    write WAVECAR
   LDOWNSAMPLE  =      F    k-point downsampling of WAVECAR
   LCHARG       =      F    write CHGCAR
   LVTOT        =      F    write LOCPOT, total local potential
   LVHAR        =      F    write LOCPOT, Hartree potential only
   LELF         =      F    write electronic localiz. function (ELF)
   LORBIT       =      0    0 simple, 1 ext, 2 COOP (PROOUT), +10 PAW based schemes


 Dipole corrections
   LMONO  =      F    monopole corrections only (constant potential shift)
   LDIPOL =      F    correct potential (dipole corrections)
   IDIPOL =      0    1-x, 2-y, 3-z, 4-all directions 
   EPSILON=  1.0000000 bulk dielectric constant

 LDA+U is selected, type is set to LDAUTYPE =  2
   angular momentum for each species LDAUL =     2    1
   U (eV)           for each species LDAUU =   3.4  0.0
   J (eV)           for each species LDAUJ =   0.0  0.0
 Exchange correlation treatment:
   GGA     =    PE    GGA type
   LEXCH   =     8    internal setting for exchange type
   VOSKOWN=      0    Vosko Wilk Nusair interpolation
   LHFCALC =     F    Hartree Fock is set to
   LHFONE  =     F    Hartree Fock one center treatment
   AEXX    =    0.0000 exact exchange contribution

 Linear response parameters
   LEPSILON=     F    determine dielectric tensor
   LRPA    =     F    only Hartree local field effects (RPA)
   LNABLA  =     F    use nabla operator in PAW spheres
   LVEL    =     F    velocity operator in full k-point grid
   LINTERFAST=   F  fast interpolation
   KINTER  =     0    interpolate to denser k-point grid
   CSHIFT  =0.1000    complex shift for real part using Kramers Kronig
   OMEGAMAX=  -1.0    maximum frequency
   DEG_THRESHOLD= 0.2000000E-02 threshold for treating states as degnerate
   RTIME   =   -0.100 relaxation time in fs
  (WPLASMAI=    0.000 imaginary part of plasma frequency in eV, 0.658/RTIME)
   DFIELD  = 0.0000000 0.0000000 0.0000000 field for delta impulse in time
 
 Orbital magnetization related:
   ORBITALMAG=     F  switch on orbital magnetization
   LCHIMAG   =     F  perturbation theory with respect to B field
   DQ        =  0.001000  dq finite difference perturbation B field
   LLRAUG    =     F  two centre corrections for induced B field



--------------------------------------------------------------------------------------------------------


 Static calculation
 charge density and potential remain constant during run
 spin polarized calculation
 Conjugate gradient for all bands (Freysoldt, et al. PRB 79, 241103 (2009))
 perform sub-space diagonalisation
    before iterative eigenvector-optimisation
 no mixing
 using additional bands           32
 reciprocal scheme for non local part
 use partial core corrections
 calculate Harris-corrections to forces 
   (improved forces if not selfconsistent)
 use gradient corrections 
 WARNING: stress and forces are not correct
  (second derivative of E(xc) not defined)
 use of overlap-Matrix (Vanderbilt PP)
 Gauss-broadening in eV      SIGMA  =   0.05


--------------------------------------------------------------------------------------------------------


  energy-cutoff  :      520.00
  volume of cell :      214.66
      direct lattice vectors                 reciprocal lattice vectors
     3.716899580  0.000000000  0.000000000     0.269041436 -0.000000000  0.000000000
     0.000000000  5.407758681  0.000000000     0.000000000  0.184919494  0.000000000
     0.000000000  0.000000000 10.679309330    -0.000000000 -0.000000000  0.093639014

  length of vectors
     3.716899580  5.407758681 10.679309330     0.269041436  0.184919494  0.093639014


 
 old parameters found on file WAVECAR:
  energy-cutoff  :      520.00
  volume of cell :      214.66
      direct lattice vectors                 reciprocal lattice vectors
     3.716899580  0.000000000  0.000000000     0.269041436 -0.000000000  0.000000000
     0.000000000  5.407758681  0.000000000     0.000000000  0.184919494  0.000000000
     0.000000000  0.000000000 10.679309330    -0.000000000 -0.000000000  0.093639014

  length of vectors

 
 k-points in units of 2pi/SCALE and weight: Line_mode KPOINTS file                  
   0.00000000  0.00000000  0.00000000       0.004
   0.00708004 -0.00000000  0.00000000       0.004
   0.01416008 -0.00000000  0.00000000       0.004
   0.02124011 -0.00000000  0.00000000       0.004
   0.02832015 -0.00000000  0.00000000       0.004
   0.03540019 -0.00000000  0.00000000       0.004
   0.04248023 -0.00000000  0.00000000       0.004
   0.04956026 -0.00000000  0.00000000       0.004
   0.05664030 -0.00000000  0.00000000       0.004
   0.06372034 -0.00000000  0.00000000       0.004
   0.07080038 -0.00000000  0.00000000       0.004
   0.07788042 -0.00000000  0.00000000       0.004
   0.08496045 -0.00000000  0.00000000       0.004
   0.09204049 -0.00000000  0.00000000       0.004
   0.09912053 -0.00000000  0.00000000       0.004
   0.10620057 -0.00000000  0.00000000       0.004
   0.11328060 -0.00000000  0.00000000       0.004
   0.12036064 -0.00000000  0.00000000       0.004
   0.12744068 -0.00000000  0.00000000       0.004
   0.13452072 -0.00000000  0.00000000       0.004
   0.13452072 -0.00000000  0.00000000       0.004
   0.13452072  0.00486630  0.00000000       0.004
   0.13452072  0.00973260  0.00000000       0.004
   0.13452072  0.01459891  0.00000000       0.004
   0.13452072  0.01946521  0.00000000       0.004
   0.13452072  0.02433151  0.00000000       0.004
   0.13452072  0.02919781  0.00000000       0.004
   0.13452072  0.03406412  0.00000000       0.004
   0.13452072  0.03893042  0.00000000       0.004
   0.13452072  0.04379672  0.00000000       0.004
   0.13452072  0.04866302  0.00000000       0.004
   0.13452072  0.05352933  0.00000000       0.004
   0.13452072  0.05839563  0.00000000       0.004
   0.13452072  0.06326193  0.00000000       0.004
   0.13452072  0.06812823  0.00000000       0.004
   0.13452072  0.07299454  0.00000000       0.004
   0.13452072  0.07786084  0.00000000       0.004
   0.13452072  0.08272714  0.00000000       0.004
   0.13452072  0.08759344  0.00000000       0.004
   0.13452072  0.09245975  0.00000000       0.004
   0.13452072  0.09245975  0.00000000       0.004
   0.12744068  0.09245975  0.00000000       0.004
   0.12036064  0.09245975  0.00000000       0.004
   0.11328060  0.09245975  0.00000000       0.004
   0.10620057  0.09245975  0.00000000       0.004
   0.09912053  0.09245975  0.00000000       0.004
   0.09204049  0.09245975  0.00000000       0.004
   0.08496045  0.09245975  0.00000000       0.004
   0.07788042  0.09245975  0.00000000       0.004
   0.07080038  0.09245975  0.00000000       0.004
   0.06372034  0.09245975  0.00000000       0.004
   0.05664030  0.09245975  0.00000000       0.004
   0.04956026  0.09245975  0.00000000       0.004
   0.04248023  0.09245975  0.00000000       0.004
   0.03540019  0.09245975  0.00000000       0.004
   0.02832015  0.09245975  0.00000000       0.004
   0.02124011  0.09245975  0.00000000       0.004
   0.01416008  0.09245975  0.00000000       0.004
   0.00708004  0.09245975  0.00000000       0.004
   0.00000000  0.09245975  0.00000000       0.004
   0.00000000  0.09245975  0.00000000       0.004
   0.00000000  0.08759344  0.00000000       0.004
   0.00000000  0.08272714  0.00000000       0.004
   0.00000000  0.07786084  0.00000000       0.004
   0.00000000  0.07299454  0.00000000       0.004
   0.00000000  0.06812823  0.00000000       0.004
   0.00000000  0.06326193  0.00000000       0.004
   0.00000000  0.05839563  0.00000000       0.004
   0.00000000  0.05352933  0.00000000       0.004
   0.00000000  0.04866302  0.00000000       0.004
   0.00000000  0.04379672  0.00000000       0.004
   0.00000000  0.03893042  0.00000000       0.004
   0.00000000  0.03406412  0.00000000       0.004
   0.00000000  0.02919781  0.00000000       0.004
   0.00000000  0.02433151  0.00000000       0.004
   0.00000000  0.01946521  0.00000000       0.004
   0.00000000  0.01459891  0.00000000       0.004
   0.00000000  0.00973260  0.00000000       0.004
   0.00000000  0.00486630  0.00000000       0.004
   0.00000000  0.00000000  0.00000000       0.004
   0.00000000  0.00000000  0.00000000       0.004
  -0.00000000 -0.00000000  0.00246418       0.004
  -0.00000000 -0.00000000  0.00492837       0.004
  -0.00000000 -0.00000000  0.00739255       0.004
  -0.00000000 -0.00000000  0.00985674       0.004
  -0.00000000 -0.00000000  0.01232092       0.004
  -0.00000000 -0.00000000  0.01478511       0.004
  -0.00000000 -0.00000000  0.01724929       0.004
  -0.00000000 -0.00000000  0.01971348       0.004
  -0.00000000 -0.00000000  0.02217766       0.004
  -0.00000000 -0.00000000  0.02464185       0.004
  -0.00000000 -0.00000000  0.02710603       0.004
  -0.00000000 -0.00000000  0.02957022       0.004
  -0.00000000 -0.00000000  0.03203440       0.004
  -0.00000000 -0.00000000  0.03449858       0.004
  -0.00000000 -0.00000000  0.03696277       0.004
  -0.00000000 -0.00000000  0.03942695       0.004
  -0.00000000 -0.00000000  0.04189114       0.004
  -0.00000000 -0.00000000  0.04435532       0.004
  -0.00000000 -0.00000000  0.04681951       0.004
  -0.00000000 -0.00000000  0.04681951       0.004
   0.00708004 -0.00000000  0.04681951       0.004
   0.01416008 -0.00000000  0.04681951       0.004
   0.02124011 -0.00000000  0.04681951       0.004
   0.02832015 -0.00000000  0.04681951       0.004
   0.03540019 -0.00000000  0.04681951       0.004
   0.04248023 -0.00000000  0.04681951       0.004
   0.04956026 -0.00000000  0.04681951       0.004
   0.05664030 -0.00000000  0.04681951       0.004
   0.06372034 -0.00000000  0.04681951       0.004
   0.07080038 -0.00000000  0.04681951       0.004
   0.07788042 -0.00000000  0.04681951       0.004
   0.08496045 -0.00000000  0.04681951       0.004
   0.09204049 -0.00000000  0.04681951       0.004
   0.09912053 -0.00000000  0.04681951       0.004
   0.10620057 -0.00000000  0.04681951       0.004
   0.11328060 -0.00000000  0.04681951       0.004
   0.12036064 -0.00000000  0.04681951       0.004
   0.12744068 -0.00000000  0.04681951       0.004
   0.13452072 -0.00000000  0.04681951       0.004
   0.13452072 -0.00000000  0.04681951       0.004
   0.13452072  0.00486630  0.04681951       0.004
   0.13452072  0.00973260  0.04681951       0.004
   0.13452072  0.01459891  0.04681951       0.004
   0.13452072  0.01946521  0.04681951       0.004
   0.13452072  0.02433151  0.04681951       0.004
   0.13452072  0.02919781  0.04681951       0.004
   0.13452072  0.03406412  0.04681951       0.004
   0.13452072  0.03893042  0.04681951       0.004
   0.13452072  0.04379672  0.04681951       0.004
   0.13452072  0.04866302  0.04681951       0.004
   0.13452072  0.05352933  0.04681951       0.004
   0.13452072  0.05839563  0.04681951       0.004
   0.13452072  0.06326193  0.04681951       0.004
   0.13452072  0.06812823  0.04681951       0.004
   0.13452072  0.07299454  0.04681951       0.004
   0.13452072  0.07786084  0.04681951       0.004
   0.13452072  0.08272714  0.04681951       0.004
   0.13452072  0.08759344  0.04681951       0.004
   0.13452072  0.09245975  0.04681951       0.004
   0.13452072  0.09245975  0.04681951       0.004
   0.12744068  0.09245975  0.04681951       0.004
   0.12036064  0.09245975  0.04681951       0.004
   0.11328060  0.09245975  0.04681951       0.004
   0.10620057  0.09245975  0.04681951       0.004
   0.09912053  0.09245975  0.04681951       0.004
   0.09204049  0.09245975  0.04681951       0.004
   0.08496045  0.09245975  0.04681951       0.004
   0.07788042  0.09245975  0.04681951       0.004
   0.07080038  0.09245975  0.04681951       0.004
   0.06372034  0.09245975  0.04681951       0.004
   0.05664030  0.09245975  0.04681951       0.004
   0.04956026  0.09245975  0.04681951       0.004
   0.04248023  0.09245975  0.04681951       0.004
   0.03540019  0.09245975  0.04681951       0.004
   0.02832015  0.09245975  0.04681951       0.004
   0.02124011  0.09245975  0.04681951       0.004
   0.01416008  0.09245975  0.04681951       0.004
   0.00708004  0.09245975  0.04681951       0.004
   0.00000000  0.09245975  0.04681951       0.004
  -0.00000000  0.09245975  0.04681951       0.004
  -0.00000000  0.08759344  0.04681951       0.004
  -0.00000000  0.08272714  0.04681951       0.004
  -0.00000000  0.07786084  0.04681951       0.004
  -0.00000000  0.07299454  0.04681951       0.004
  -0.00000000  0.06812823  0.04681951       0.004
  -0.00000000  0.06326193  0.04681951       0.004
  -0.00000000  0.05839563  0.04681951       0.004
  -0.00000000  0.05352933  0.04681951       0.004
  -0.00000000  0.04866302  0.04681951       0.004
  -0.00000000  0.04379672  0.04681951       0.004
  -0.00000000  0.03893042  0.04681951       0.004
  -0.00000000  0.03406412  0.04681951       0.004
  -0.00000000  0.02919781  0.04681951       0.004
  -0.00000000  0.02433151  0.04681951       0.004
  -0.00000000  0.01946521  0.04681951       0.004
  -0.00000000  0.01459891  0.04681951       0.004
  -0.00000000  0.00973260  0.04681951       0.004
  -0.00000000  0.00486630  0.04681951       0.004
  -0.00000000  0.00000000  0.04681951       0.004
   0.00000000  0.09245975  0.00000000       0.004
  -0.00000000  0.09245975  0.00246418       0.004
  -0.00000000  0.09245975  0.00492837       0.004
  -0.00000000  0.09245975  0.00739255       0.004
  -0.00000000  0.09245975  0.00985674       0.004
  -0.00000000  0.09245975  0.01232092       0.004
  -0.00000000  0.09245975  0.01478511       0.004
  -0.00000000  0.09245975  0.01724929       0.004
  -0.00000000  0.09245975  0.01971348       0.004
  -0.00000000  0.09245975  0.02217766       0.004
  -0.00000000  0.09245975  0.02464185       0.004
  -0.00000000  0.09245975  0.02710603       0.004
  -0.00000000  0.09245975  0.02957022       0.004
  -0.00000000  0.09245975  0.03203440       0.004
  -0.00000000  0.09245975  0.03449858       0.004
  -0.00000000  0.09245975  0.03696277       0.004
  -0.00000000  0.09245975  0.03942695       0.004
  -0.00000000  0.09245975  0.04189114       0.004
  -0.00000000  0.09245975  0.04435532       0.004
  -0.00000000  0.09245975  0.04681951       0.004
   0.13452072 -0.00000000  0.04681951       0.004
   0.13452072 -0.00000000  0.04435532       0.004
   0.13452072 -0.00000000  0.04189114       0.004
   0.13452072 -0.00000000  0.03942695       0.004
   0.13452072 -0.00000000  0.03696277       0.004
   0.13452072 -0.00000000  0.03449858       0.004
   0.13452072 -0.00000000  0.03203440       0.004
   0.13452072 -0.00000000  0.02957022       0.004
   0.13452072 -0.00000000  0.02710603       0.004
   0.13452072 -0.00000000  0.02464185       0.004
   0.13452072 -0.00000000  0.02217766       0.004
   0.13452072 -0.00000000  0.01971348       0.004
   0.13452072 -0.00000000  0.01724929       0.004
   0.13452072 -0.00000000  0.01478511       0.004
   0.13452072 -0.00000000  0.01232092       0.004
   0.13452072 -0.00000000  0.00985674       0.004
   0.13452072 -0.00000000  0.00739255       0.004
   0.13452072 -0.00000000  0.00492837       0.004
   0.13452072 -0.00000000  0.00246418       0.004
   0.13452072 -0.00000000  0.00000000       0.004
   0.13452072  0.09245975  0.00000000       0.004
   0.13452072  0.09245975  0.00246418       0.004
   0.13452072  0.09245975  0.00492837       0.004
   0.13452072  0.09245975  0.00739255       0.004
   0.13452072  0.09245975  0.00985674       0.004
   0.13452072  0.09245975  0.01232092       0.004
   0.13452072  0.09245975  0.01478511       0.004
   0.13452072  0.09245975  0.01724929       0.004
   0.13452072  0.09245975  0.01971348       0.004
   0.13452072  0.09245975  0.02217766       0.004
   0.13452072  0.09245975  0.02464185       0.004
   0.13452072  0.09245975  0.02710603       0.004
   0.13452072  0.09245975  0.02957022       0.004
   0.13452072  0.09245975  0.03203440       0.004
   0.13452072  0.09245975  0.03449858       0.004
   0.13452072  0.09245975  0.03696277       0.004
   0.13452072  0.09245975  0.03942695       0.004
   0.13452072  0.09245975  0.04189114       0.004
   0.13452072  0.09245975  0.04435532       0.004
   0.13452072  0.09245975  0.04681951       0.004
 
 k-points in reciprocal lattice and weights: Line_mode KPOINTS file                  
   0.00000000  0.00000000  0.00000000       0.004
   0.02631579  0.00000000  0.00000000       0.004
   0.05263158  0.00000000  0.00000000       0.004
   0.07894737  0.00000000  0.00000000       0.004
   0.10526316  0.00000000  0.00000000       0.004
   0.13157895  0.00000000  0.00000000       0.004
   0.15789474  0.00000000  0.00000000       0.004
   0.18421053  0.00000000  0.00000000       0.004
   0.21052632  0.00000000  0.00000000       0.004
   0.23684211  0.00000000  0.00000000       0.004
   0.26315789  0.00000000  0.00000000       0.004
   0.28947368  0.00000000  0.00000000       0.004
   0.31578947  0.00000000  0.00000000       0.004
   0.34210526  0.00000000  0.00000000       0.004
   0.36842105  0.00000000  0.00000000       0.004
   0.39473684  0.00000000  0.00000000       0.004
   0.42105263  0.00000000  0.00000000       0.004
   0.44736842  0.00000000  0.00000000       0.004
   0.47368421  0.00000000  0.00000000       0.004
   0.50000000  0.00000000  0.00000000       0.004
   0.50000000  0.00000000  0.00000000       0.004
   0.50000000  0.02631579  0.00000000       0.004
   0.50000000  0.05263158  0.00000000       0.004
   0.50000000  0.07894737  0.00000000       0.004
   0.50000000  0.10526316  0.00000000       0.004
   0.50000000  0.13157895  0.00000000       0.004
   0.50000000  0.15789474  0.00000000       0.004
   0.50000000  0.18421053  0.00000000       0.004
   0.50000000  0.21052632  0.00000000       0.004
   0.50000000  0.23684211  0.00000000       0.004
   0.50000000  0.26315789  0.00000000       0.004
   0.50000000  0.28947368  0.00000000       0.004
   0.50000000  0.31578947  0.00000000       0.004
   0.50000000  0.34210526  0.00000000       0.004
   0.50000000  0.36842105  0.00000000       0.004
   0.50000000  0.39473684  0.00000000       0.004
   0.50000000  0.42105263  0.00000000       0.004
   0.50000000  0.44736842  0.00000000       0.004
   0.50000000  0.47368421  0.00000000       0.004
   0.50000000  0.50000000  0.00000000       0.004
   0.50000000  0.50000000  0.00000000       0.004
   0.47368421  0.50000000  0.00000000       0.004
   0.44736842  0.50000000  0.00000000       0.004
   0.42105263  0.50000000  0.00000000       0.004
   0.39473684  0.50000000  0.00000000       0.004
   0.36842105  0.50000000  0.00000000       0.004
   0.34210526  0.50000000  0.00000000       0.004
   0.31578947  0.50000000  0.00000000       0.004
   0.28947368  0.50000000  0.00000000       0.004
   0.26315789  0.50000000  0.00000000       0.004
   0.23684211  0.50000000  0.00000000       0.004
   0.21052632  0.50000000  0.00000000       0.004
   0.18421053  0.50000000  0.00000000       0.004
   0.15789474  0.50000000  0.00000000       0.004
   0.13157895  0.50000000  0.00000000       0.004
   0.10526316  0.50000000  0.00000000       0.004
   0.07894737  0.50000000  0.00000000       0.004
   0.05263158  0.50000000  0.00000000       0.004
   0.02631579  0.50000000  0.00000000       0.004
   0.00000000  0.50000000  0.00000000       0.004
   0.00000000  0.50000000  0.00000000       0.004
   0.00000000  0.47368421  0.00000000       0.004
   0.00000000  0.44736842  0.00000000       0.004
   0.00000000  0.42105263  0.00000000       0.004
   0.00000000  0.39473684  0.00000000       0.004
   0.00000000  0.36842105  0.00000000       0.004
   0.00000000  0.34210526  0.00000000       0.004
   0.00000000  0.31578947  0.00000000       0.004
   0.00000000  0.28947368  0.00000000       0.004
   0.00000000  0.26315789  0.00000000       0.004
   0.00000000  0.23684211  0.00000000       0.004
   0.00000000  0.21052632  0.00000000       0.004
   0.00000000  0.18421053  0.00000000       0.004
   0.00000000  0.15789474  0.00000000       0.004
   0.00000000  0.13157895  0.00000000       0.004
   0.00000000  0.10526316  0.00000000       0.004
   0.00000000  0.07894737  0.00000000       0.004
   0.00000000  0.05263158  0.00000000       0.004
   0.00000000  0.02631579  0.00000000       0.004
   0.00000000  0.00000000  0.00000000       0.004
   0.00000000  0.00000000  0.00000000       0.004
   0.00000000  0.00000000  0.02631579       0.004
   0.00000000  0.00000000  0.05263158       0.004
   0.00000000  0.00000000  0.07894737       0.004
   0.00000000  0.00000000  0.10526316       0.004
   0.00000000  0.00000000  0.13157895       0.004
   0.00000000  0.00000000  0.15789474       0.004
   0.00000000  0.00000000  0.18421053       0.004
   0.00000000  0.00000000  0.21052632       0.004
   0.00000000  0.00000000  0.23684211       0.004
   0.00000000  0.00000000  0.26315789       0.004
   0.00000000  0.00000000  0.28947368       0.004
   0.00000000  0.00000000  0.31578947       0.004
   0.00000000  0.00000000  0.34210526       0.004
   0.00000000  0.00000000  0.36842105       0.004
   0.00000000  0.00000000  0.39473684       0.004
   0.00000000  0.00000000  0.42105263       0.004
   0.00000000  0.00000000  0.44736842       0.004
   0.00000000  0.00000000  0.47368421       0.004
   0.00000000  0.00000000  0.50000000       0.004
   0.00000000  0.00000000  0.50000000       0.004
   0.02631579  0.00000000  0.50000000       0.004
   0.05263158  0.00000000  0.50000000       0.004
   0.07894737  0.00000000  0.50000000       0.004
   0.10526316  0.00000000  0.50000000       0.004
   0.13157895  0.00000000  0.50000000       0.004
   0.15789474  0.00000000  0.50000000       0.004
   0.18421053  0.00000000  0.50000000       0.004
   0.21052632  0.00000000  0.50000000       0.004
   0.23684211  0.00000000  0.50000000       0.004
   0.26315789  0.00000000  0.50000000       0.004
   0.28947368  0.00000000  0.50000000       0.004
   0.31578947  0.00000000  0.50000000       0.004
   0.34210526  0.00000000  0.50000000       0.004
   0.36842105  0.00000000  0.50000000       0.004
   0.39473684  0.00000000  0.50000000       0.004
   0.42105263  0.00000000  0.50000000       0.004
   0.44736842  0.00000000  0.50000000       0.004
   0.47368421  0.00000000  0.50000000       0.004
   0.50000000  0.00000000  0.50000000       0.004
   0.50000000  0.00000000  0.50000000       0.004
   0.50000000  0.02631579  0.50000000       0.004
   0.50000000  0.05263158  0.50000000       0.004
   0.50000000  0.07894737  0.50000000       0.004
   0.50000000  0.10526316  0.50000000       0.004
   0.50000000  0.13157895  0.50000000       0.004
   0.50000000  0.15789474  0.50000000       0.004
   0.50000000  0.18421053  0.50000000       0.004
   0.50000000  0.21052632  0.50000000       0.004
   0.50000000  0.23684211  0.50000000       0.004
   0.50000000  0.26315789  0.50000000       0.004
   0.50000000  0.28947368  0.50000000       0.004
   0.50000000  0.31578947  0.50000000       0.004
   0.50000000  0.34210526  0.50000000       0.004
   0.50000000  0.36842105  0.50000000       0.004
   0.50000000  0.39473684  0.50000000       0.004
   0.50000000  0.42105263  0.50000000       0.004
   0.50000000  0.44736842  0.50000000       0.004
   0.50000000  0.47368421  0.50000000       0.004
   0.50000000  0.50000000  0.50000000       0.004
   0.50000000  0.50000000  0.50000000       0.004
   0.47368421  0.50000000  0.50000000       0.004
   0.44736842  0.50000000  0.50000000       0.004
   0.42105263  0.50000000  0.50000000       0.004
   0.39473684  0.50000000  0.50000000       0.004
   0.36842105  0.50000000  0.50000000       0.004
   0.34210526  0.50000000  0.50000000       0.004
   0.31578947  0.50000000  0.50000000       0.004
   0.28947368  0.50000000  0.50000000       0.004
   0.26315789  0.50000000  0.50000000       0.004
   0.23684211  0.50000000  0.50000000       0.004
   0.21052632  0.50000000  0.50000000       0.004
   0.18421053  0.50000000  0.50000000       0.004
   0.15789474  0.50000000  0.50000000       0.004
   0.13157895  0.50000000  0.50000000       0.004
   0.10526316  0.50000000  0.50000000       0.004
   0.07894737  0.50000000  0.50000000       0.004
   0.05263158  0.50000000  0.50000000       0.004
   0.02631579  0.50000000  0.50000000       0.004
   0.00000000  0.50000000  0.50000000       0.004
   0.00000000  0.50000000  0.50000000       0.004
   0.00000000  0.47368421  0.50000000       0.004
   0.00000000  0.44736842  0.50000000       0.004
   0.00000000  0.42105263  0.50000000       0.004
   0.00000000  0.39473684  0.50000000       0.004
   0.00000000  0.36842105  0.50000000       0.004
   0.00000000  0.34210526  0.50000000       0.004
   0.00000000  0.31578947  0.50000000       0.004
   0.00000000  0.28947368  0.50000000       0.004
   0.00000000  0.26315789  0.50000000       0.004
   0.00000000  0.23684211  0.50000000       0.004
   0.00000000  0.21052632  0.50000000       0.004
   0.00000000  0.18421053  0.50000000       0.004
   0.00000000  0.15789474  0.50000000       0.004
   0.00000000  0.13157895  0.50000000       0.004
   0.00000000  0.10526316  0.50000000       0.004
   0.00000000  0.07894737  0.50000000       0.004
   0.00000000  0.05263158  0.50000000       0.004
   0.00000000  0.02631579  0.50000000       0.004
   0.00000000  0.00000000  0.50000000       0.004
   0.00000000  0.50000000  0.00000000       0.004
   0.00000000  0.50000000  0.02631579       0.004
   0.00000000  0.50000000  0.05263158       0.004
   0.00000000  0.50000000  0.07894737       0.004
   0.00000000  0.50000000  0.10526316       0.004
   0.00000000  0.50000000  0.13157895       0.004
   0.00000000  0.50000000  0.15789474       0.004
   0.00000000  0.50000000  0.18421053       0.004
   0.00000000  0.50000000  0.21052632       0.004
   0.00000000  0.50000000  0.23684211       0.004
   0.00000000  0.50000000  0.26315789       0.004
   0.00000000  0.50000000  0.28947368       0.004
   0.00000000  0.50000000  0.31578947       0.004
   0.00000000  0.50000000  0.34210526       0.004
   0.00000000  0.50000000  0.36842105       0.004
   0.00000000  0.50000000  0.39473684       0.004
   0.00000000  0.50000000  0.42105263       0.004
   0.00000000  0.50000000  0.44736842       0.004
   0.00000000  0.50000000  0.47368421       0.004
   0.00000000  0.50000000  0.50000000       0.004
   0.50000000  0.00000000  0.50000000       0.004
   0.50000000  0.00000000  0.47368421       0.004
   0.50000000  0.00000000  0.44736842       0.004
   0.50000000  0.00000000  0.42105263       0.004
   0.50000000  0.00000000  0.39473684       0.004
   0.50000000  0.00000000  0.36842105       0.004
   0.50000000  0.00000000  0.34210526       0.004
   0.50000000  0.00000000  0.31578947       0.004
   0.50000000  0.00000000  0.28947368       0.004
   0.50000000  0.00000000  0.26315789       0.004
   0.50000000  0.00000000  0.23684211       0.004
   0.50000000  0.00000000  0.21052632       0.004
   0.50000000  0.00000000  0.18421053       0.004
   0.50000000  0.00000000  0.15789474       0.004
   0.50000000  0.00000000  0.13157895       0.004
   0.50000000  0.00000000  0.10526316       0.004
   0.50000000  0.00000000  0.07894737       0.004
   0.50000000  0.00000000  0.05263158       0.004
   0.50000000  0.00000000  0.02631579       0.004
   0.50000000  0.00000000  0.00000000       0.004
   0.50000000  0.50000000  0.00000000       0.004
   0.50000000  0.50000000  0.02631579       0.004
   0.50000000  0.50000000  0.05263158       0.004
   0.50000000  0.50000000  0.07894737       0.004
   0.50000000  0.50000000  0.10526316       0.004
   0.50000000  0.50000000  0.13157895       0.004
   0.50000000  0.50000000  0.15789474       0.004
   0.50000000  0.50000000  0.18421053       0.004
   0.50000000  0.50000000  0.21052632       0.004
   0.50000000  0.50000000  0.23684211       0.004
   0.50000000  0.50000000  0.26315789       0.004
   0.50000000  0.50000000  0.28947368       0.004
   0.50000000  0.50000000  0.31578947       0.004
   0.50000000  0.50000000  0.34210526       0.004
   0.50000000  0.50000000  0.36842105       0.004
   0.50000000  0.50000000  0.39473684       0.004
   0.50000000  0.50000000  0.42105263       0.004
   0.50000000  0.50000000  0.44736842       0.004
   0.50000000  0.50000000  0.47368421       0.004
   0.50000000  0.50000000  0.50000000       0.004
 
 position of ions in fractional coordinates (direct lattice) 
   0.50000000  0.73172892  0.13278115
   0.50000000  0.26827108  0.86721885
   0.50000000  0.76827108  0.63278115
   0.50000000  0.23172892  0.36721885
   0.00000000  0.75298100  0.39726632
   0.00000000  0.24701900  0.60273368
   0.00000000  0.25298100  0.10273368
   0.00000000  0.74701900  0.89726632
   0.50000000  0.00000000  0.00000000
   0.50000000  0.62202663  0.81209167
   0.50000000  0.12202663  0.68790833
   0.50000000  0.87797337  0.31209167
   0.00000000  0.81410690  0.59620283
   0.00000000  0.18589310  0.40379717
   0.50000000  0.37797337  0.18790833
   0.00000000  0.68589310  0.09620283
   0.50000000  0.50000000  0.50000000
   0.00000000  0.31410690  0.90379717
 
 position of ions in cartesian coordinates  (Angst):
   1.85844979  3.95701345  1.41801092
   1.85844979  1.45074523  9.26129841
   1.85844979  4.15462457  6.75766559
   1.85844979  1.25313411  3.92164374
   0.00000000  4.07193951  4.24252997
   0.00000000  1.33581917  6.43677936
   0.00000000  1.36806017  1.09712469
   0.00000000  4.03969851  9.58218464
   1.85844979  0.00000000  0.00000000
   1.85844979  3.36376994  8.67257820
   1.85844979  0.65989059  7.34638579
   1.85844979  4.74786809  3.33292354
   0.00000000  4.40249363  6.36703450
   0.00000000  1.00526505  4.31227483
   1.85844979  2.04398875  2.00673113
   0.00000000  3.70914439  1.02737983
   1.85844979  2.70387934  5.33965467
   0.00000000  1.69861429  9.65192950
 


--------------------------------------------------------------------------------------------------------


 k-point   1 :   0.0000 0.0000 0.0000  plane waves:    5735
 k-point   2 :   0.0263 0.0000 0.0000  plane waves:    5743
 k-point   3 :   0.0526 0.0000 0.0000  plane waves:    5747
 k-point   4 :   0.0789 0.0000 0.0000  plane waves:    5739
 k-point   5 :   0.1053 0.0000 0.0000  plane waves:    5754
 k-point   6 :   0.1316 0.0000 0.0000  plane waves:    5746
 k-point   7 :   0.1579 0.0000 0.0000  plane waves:    5762
 k-point   8 :   0.1842 0.0000 0.0000  plane waves:    5762
 k-point   9 :   0.2105 0.0000 0.0000  plane waves:    5772
 k-point  10 :   0.2368 0.0000 0.0000  plane waves:    5782
 k-point  11 :   0.2632 0.0000 0.0000  plane waves:    5792
 k-point  12 :   0.2895 0.0000 0.0000  plane waves:    5782
 k-point  13 :   0.3158 0.0000 0.0000  plane waves:    5776
 k-point  14 :   0.3421 0.0000 0.0000  plane waves:    5748
 k-point  15 :   0.3684 0.0000 0.0000  plane waves:    5756
 k-point  16 :   0.3947 0.0000 0.0000  plane waves:    5772
 k-point  17 :   0.4211 0.0000 0.0000  plane waves:    5788
 k-point  18 :   0.4474 0.0000 0.0000  plane waves:    5782
 k-point  19 :   0.4737 0.0000 0.0000  plane waves:    5796
 k-point  20 :   0.5000 0.0000 0.0000  plane waves:    5806
 k-point  21 :   0.5000 0.0000 0.0000  plane waves:    5806
 k-point  22 :   0.5000 0.0263 0.0000  plane waves:    5802
 k-point  23 :   0.5000 0.0526 0.0000  plane waves:    5792
 k-point  24 :   0.5000 0.0789 0.0000  plane waves:    5796
 k-point  25 :   0.5000 0.1053 0.0000  plane waves:    5798
 k-point  26 :   0.5000 0.1316 0.0000  plane waves:    5794
 k-point  27 :   0.5000 0.1579 0.0000  plane waves:    5782
 k-point  28 :   0.5000 0.1842 0.0000  plane waves:    5782
 k-point  29 :   0.5000 0.2105 0.0000  plane waves:    5772
 k-point  30 :   0.5000 0.2368 0.0000  plane waves:    5768
 k-point  31 :   0.5000 0.2632 0.0000  plane waves:    5776
 k-point  32 :   0.5000 0.2895 0.0000  plane waves:    5780
 k-point  33 :   0.5000 0.3158 0.0000  plane waves:    5796
 k-point  34 :   0.5000 0.3421 0.0000  plane waves:    5798
 k-point  35 :   0.5000 0.3684 0.0000  plane waves:    5810
 k-point  36 :   0.5000 0.3947 0.0000  plane waves:    5802
 k-point  37 :   0.5000 0.4211 0.0000  plane waves:    5800
 k-point  38 :   0.5000 0.4474 0.0000  plane waves:    5812
 k-point  39 :   0.5000 0.4737 0.0000  plane waves:    5824
 k-point  40 :   0.5000 0.5000 0.0000  plane waves:    5812
 k-point  41 :   0.5000 0.5000 0.0000  plane waves:    5812
 k-point  42 :   0.4737 0.5000 0.0000  plane waves:    5818
 k-point  43 :   0.4474 0.5000 0.0000  plane waves:    5826
 k-point  44 :   0.4211 0.5000 0.0000  plane waves:    5814
 k-point  45 :   0.3947 0.5000 0.0000  plane waves:    5824
 k-point  46 :   0.3684 0.5000 0.0000  plane waves:    5812
 k-point  47 :   0.3421 0.5000 0.0000  plane waves:    5804
 k-point  48 :   0.3158 0.5000 0.0000  plane waves:    5788
 k-point  49 :   0.2895 0.5000 0.0000  plane waves:    5776
 k-point  50 :   0.2632 0.5000 0.0000  plane waves:    5768
 k-point  51 :   0.2368 0.5000 0.0000  plane waves:    5780
 k-point  52 :   0.2105 0.5000 0.0000  plane waves:    5790
 k-point  53 :   0.1842 0.5000 0.0000  plane waves:    5786
 k-point  54 :   0.1579 0.5000 0.0000  plane waves:    5774
 k-point  55 :   0.1316 0.5000 0.0000  plane waves:    5770
 k-point  56 :   0.1053 0.5000 0.0000  plane waves:    5770
 k-point  57 :   0.0789 0.5000 0.0000  plane waves:    5772
 k-point  58 :   0.0526 0.5000 0.0000  plane waves:    5772
 k-point  59 :   0.0263 0.5000 0.0000  plane waves:    5760
 k-point  60 :   0.0000 0.5000 0.0000  plane waves:    5776
 k-point  61 :   0.0000 0.5000 0.0000  plane waves:    5776
 k-point  62 :   0.0000 0.4737 0.0000  plane waves:    5764
 k-point  63 :   0.0000 0.4474 0.0000  plane waves:    5772
 k-point  64 :   0.0000 0.4211 0.0000  plane waves:    5764
 k-point  65 :   0.0000 0.3947 0.0000  plane waves:    5764
 k-point  66 :   0.0000 0.3684 0.0000  plane waves:    5756
 k-point  67 :   0.0000 0.3421 0.0000  plane waves:    5748
 k-point  68 :   0.0000 0.3158 0.0000  plane waves:    5752
 k-point  69 :   0.0000 0.2895 0.0000  plane waves:    5758
 k-point  70 :   0.0000 0.2632 0.0000  plane waves:    5752
 k-point  71 :   0.0000 0.2368 0.0000  plane waves:    5758
 k-point  72 :   0.0000 0.2105 0.0000  plane waves:    5758
 k-point  73 :   0.0000 0.1842 0.0000  plane waves:    5772
 k-point  74 :   0.0000 0.1579 0.0000  plane waves:    5756
 k-point  75 :   0.0000 0.1316 0.0000  plane waves:    5758
 k-point  76 :   0.0000 0.1053 0.0000  plane waves:    5756
 k-point  77 :   0.0000 0.0789 0.0000  plane waves:    5760
 k-point  78 :   0.0000 0.0526 0.0000  plane waves:    5741
 k-point  79 :   0.0000 0.0263 0.0000  plane waves:    5733
 k-point  80 :   0.0000 0.0000 0.0000  plane waves:    5735
 k-point  81 :   0.0000 0.0000 0.0000  plane waves:    5735
 k-point  82 :   0.0000 0.0000 0.0263  plane waves:    5737
 k-point  83 :   0.0000 0.0000 0.0526  plane waves:    5725
 k-point  84 :   0.0000 0.0000 0.0789  plane waves:    5713
 k-point  85 :   0.0000 0.0000 0.1053  plane waves:    5721
 k-point  86 :   0.0000 0.0000 0.1316  plane waves:    5735
 k-point  87 :   0.0000 0.0000 0.1579  plane waves:    5740
 k-point  88 :   0.0000 0.0000 0.1842  plane waves:    5744
 k-point  89 :   0.0000 0.0000 0.2105  plane waves:    5738
 k-point  90 :   0.0000 0.0000 0.2368  plane waves:    5738
 k-point  91 :   0.0000 0.0000 0.2632  plane waves:    5730
 k-point  92 :   0.0000 0.0000 0.2895  plane waves:    5734
 k-point  93 :   0.0000 0.0000 0.3158  plane waves:    5740
 k-point  94 :   0.0000 0.0000 0.3421  plane waves:    5748
 k-point  95 :   0.0000 0.0000 0.3684  plane waves:    5746
 k-point  96 :   0.0000 0.0000 0.3947  plane waves:    5738
 k-point  97 :   0.0000 0.0000 0.4211  plane waves:    5738
 k-point  98 :   0.0000 0.0000 0.4474  plane waves:    5738
 k-point  99 :   0.0000 0.0000 0.4737  plane waves:    5744
 k-point 100 :   0.0000 0.0000 0.5000  plane waves:    5748
 k-point 101 :   0.0000 0.0000 0.5000  plane waves:    5748
 k-point 102 :   0.0263 0.0000 0.5000  plane waves:    5744
 k-point 103 :   0.0526 0.0000 0.5000  plane waves:    5752
 k-point 104 :   0.0789 0.0000 0.5000  plane waves:    5756
 k-point 105 :   0.1053 0.0000 0.5000  plane waves:    5750
 k-point 106 :   0.1316 0.0000 0.5000  plane waves:    5768
 k-point 107 :   0.1579 0.0000 0.5000  plane waves:    5774
 k-point 108 :   0.1842 0.0000 0.5000  plane waves:    5782
 k-point 109 :   0.2105 0.0000 0.5000  plane waves:    5772
 k-point 110 :   0.2368 0.0000 0.5000  plane waves:    5776
 k-point 111 :   0.2632 0.0000 0.5000  plane waves:    5762
 k-point 112 :   0.2895 0.0000 0.5000  plane waves:    5764
 k-point 113 :   0.3158 0.0000 0.5000  plane waves:    5786
 k-point 114 :   0.3421 0.0000 0.5000  plane waves:    5776
 k-point 115 :   0.3684 0.0000 0.5000  plane waves:    5780
 k-point 116 :   0.3947 0.0000 0.5000  plane waves:    5786
 k-point 117 :   0.4211 0.0000 0.5000  plane waves:    5780
 k-point 118 :   0.4474 0.0000 0.5000  plane waves:    5788
 k-point 119 :   0.4737 0.0000 0.5000  plane waves:    5790
 k-point 120 :   0.5000 0.0000 0.5000  plane waves:    5780
 k-point 121 :   0.5000 0.0000 0.5000  plane waves:    5780
 k-point 122 :   0.5000 0.0263 0.5000  plane waves:    5780
 k-point 123 :   0.5000 0.0526 0.5000  plane waves:    5780
 k-point 124 :   0.5000 0.0789 0.5000  plane waves:    5788
 k-point 125 :   0.5000 0.1053 0.5000  plane waves:    5788
 k-point 126 :   0.5000 0.1316 0.5000  plane waves:    5792
 k-point 127 :   0.5000 0.1579 0.5000  plane waves:    5792
 k-point 128 :   0.5000 0.1842 0.5000  plane waves:    5800
 k-point 129 :   0.5000 0.2105 0.5000  plane waves:    5808
 k-point 130 :   0.5000 0.2368 0.5000  plane waves:    5816
 k-point 131 :   0.5000 0.2632 0.5000  plane waves:    5804
 k-point 132 :   0.5000 0.2895 0.5000  plane waves:    5804
 k-point 133 :   0.5000 0.3158 0.5000  plane waves:    5796
 k-point 134 :   0.5000 0.3421 0.5000  plane waves:    5784
 k-point 135 :   0.5000 0.3684 0.5000  plane waves:    5788
 k-point 136 :   0.5000 0.3947 0.5000  plane waves:    5792
 k-point 137 :   0.5000 0.4211 0.5000  plane waves:    5784
 k-point 138 :   0.5000 0.4474 0.5000  plane waves:    5788
 k-point 139 :   0.5000 0.4737 0.5000  plane waves:    5796
 k-point 140 :   0.5000 0.5000 0.5000  plane waves:    5808
 k-point 141 :   0.5000 0.5000 0.5000  plane waves:    5808
 k-point 142 :   0.4737 0.5000 0.5000  plane waves:    5804
 k-point 143 :   0.4474 0.5000 0.5000  plane waves:    5808
 k-point 144 :   0.4211 0.5000 0.5000  plane waves:    5804
 k-point 145 :   0.3947 0.5000 0.5000  plane waves:    5792
 k-point 146 :   0.3684 0.5000 0.5000  plane waves:    5792
 k-point 147 :   0.3421 0.5000 0.5000  plane waves:    5788
 k-point 148 :   0.3158 0.5000 0.5000  plane waves:    5792
 k-point 149 :   0.2895 0.5000 0.5000  plane waves:    5780
 k-point 150 :   0.2632 0.5000 0.5000  plane waves:    5788
 k-point 151 :   0.2368 0.5000 0.5000  plane waves:    5788
 k-point 152 :   0.2105 0.5000 0.5000  plane waves:    5772
 k-point 153 :   0.1842 0.5000 0.5000  plane waves:    5776
 k-point 154 :   0.1579 0.5000 0.5000  plane waves:    5780
 k-point 155 :   0.1316 0.5000 0.5000  plane waves:    5776
 k-point 156 :   0.1053 0.5000 0.5000  plane waves:    5780
 k-point 157 :   0.0789 0.5000 0.5000  plane waves:    5788
 k-point 158 :   0.0526 0.5000 0.5000  plane waves:    5804
 k-point 159 :   0.0263 0.5000 0.5000  plane waves:    5800
 k-point 160 :   0.0000 0.5000 0.5000  plane waves:    5796
 k-point 161 :   0.0000 0.5000 0.5000  plane waves:    5796
 k-point 162 :   0.0000 0.4737 0.5000  plane waves:    5786
 k-point 163 :   0.0000 0.4474 0.5000  plane waves:    5780
 k-point 164 :   0.0000 0.4211 0.5000  plane waves:    5784
 k-point 165 :   0.0000 0.3947 0.5000  plane waves:    5786
 k-point 166 :   0.0000 0.3684 0.5000  plane waves:    5784
 k-point 167 :   0.0000 0.3421 0.5000  plane waves:    5786
 k-point 168 :   0.0000 0.3158 0.5000  plane waves:    5780
 k-point 169 :   0.0000 0.2895 0.5000  plane waves:    5778
 k-point 170 :   0.0000 0.2632 0.5000  plane waves:    5772
 k-point 171 :   0.0000 0.2368 0.5000  plane waves:    5770
 k-point 172 :   0.0000 0.2105 0.5000  plane waves:    5778
 k-point 173 :   0.0000 0.1842 0.5000  plane waves:    5784
 k-point 174 :   0.0000 0.1579 0.5000  plane waves:    5778
 k-point 175 :   0.0000 0.1316 0.5000  plane waves:    5770
 k-point 176 :   0.0000 0.1053 0.5000  plane waves:    5764
 k-point 177 :   0.0000 0.0789 0.5000  plane waves:    5758
 k-point 178 :   0.0000 0.0526 0.5000  plane waves:    5746
 k-point 179 :   0.0000 0.0263 0.5000  plane waves:    5740
 k-point 180 :   0.0000 0.0000 0.5000  plane waves:    5748
 k-point 181 :   0.0000 0.5000 0.0000  plane waves:    5776
 k-point 182 :   0.0000 0.5000 0.0263  plane waves:    5764
 k-point 183 :   0.0000 0.5000 0.0526  plane waves:    5756
 k-point 184 :   0.0000 0.5000 0.0789  plane waves:    5756
 k-point 185 :   0.0000 0.5000 0.1053  plane waves:    5772
 k-point 186 :   0.0000 0.5000 0.1316  plane waves:    5780
 k-point 187 :   0.0000 0.5000 0.1579  plane waves:    5782
 k-point 188 :   0.0000 0.5000 0.1842  plane waves:    5784
 k-point 189 :   0.0000 0.5000 0.2105  plane waves:    5792
 k-point 190 :   0.0000 0.5000 0.2368  plane waves:    5788
 k-point 191 :   0.0000 0.5000 0.2632  plane waves:    5786
 k-point 192 :   0.0000 0.5000 0.2895  plane waves:    5786
 k-point 193 :   0.0000 0.5000 0.3158  plane waves:    5790
 k-point 194 :   0.0000 0.5000 0.3421  plane waves:    5794
 k-point 195 :   0.0000 0.5000 0.3684  plane waves:    5796
 k-point 196 :   0.0000 0.5000 0.3947  plane waves:    5794
 k-point 197 :   0.0000 0.5000 0.4211  plane waves:    5794
 k-point 198 :   0.0000 0.5000 0.4474  plane waves:    5782
 k-point 199 :   0.0000 0.5000 0.4737  plane waves:    5790
 k-point 200 :   0.0000 0.5000 0.5000  plane waves:    5796
 k-point 201 :   0.5000 0.0000 0.5000  plane waves:    5780
 k-point 202 :   0.5000 0.0000 0.4737  plane waves:    5782
 k-point 203 :   0.5000 0.0000 0.4474  plane waves:    5790
 k-point 204 :   0.5000 0.0000 0.4211  plane waves:    5790
 k-point 205 :   0.5000 0.0000 0.3947  plane waves:    5790
 k-point 206 :   0.5000 0.0000 0.3684  plane waves:    5796
 k-point 207 :   0.5000 0.0000 0.3421  plane waves:    5800
 k-point 208 :   0.5000 0.0000 0.3158  plane waves:    5792
 k-point 209 :   0.5000 0.0000 0.2895  plane waves:    5792
 k-point 210 :   0.5000 0.0000 0.2632  plane waves:    5788
 k-point 211 :   0.5000 0.0000 0.2368  plane waves:    5782
 k-point 212 :   0.5000 0.0000 0.2105  plane waves:    5794
 k-point 213 :   0.5000 0.0000 0.1842  plane waves:    5796
 k-point 214 :   0.5000 0.0000 0.1579  plane waves:    5808
 k-point 215 :   0.5000 0.0000 0.1316  plane waves:    5796
 k-point 216 :   0.5000 0.0000 0.1053  plane waves:    5794
 k-point 217 :   0.5000 0.0000 0.0789  plane waves:    5798
 k-point 218 :   0.5000 0.0000 0.0526  plane waves:    5800
 k-point 219 :   0.5000 0.0000 0.0263  plane waves:    5804
 k-point 220 :   0.5000 0.0000 0.0000  plane waves:    5806
 k-point 221 :   0.5000 0.5000 0.0000  plane waves:    5812
 k-point 222 :   0.5000 0.5000 0.0263  plane waves:    5820
 k-point 223 :   0.5000 0.5000 0.0526  plane waves:    5820
 k-point 224 :   0.5000 0.5000 0.0789  plane waves:    5812
 k-point 225 :   0.5000 0.5000 0.1053  plane waves:    5800
 k-point 226 :   0.5000 0.5000 0.1316  plane waves:    5800
 k-point 227 :   0.5000 0.5000 0.1579  plane waves:    5792
 k-point 228 :   0.5000 0.5000 0.1842  plane waves:    5788
 k-point 229 :   0.5000 0.5000 0.2105  plane waves:    5792
 k-point 230 :   0.5000 0.5000 0.2368  plane waves:    5796
 k-point 231 :   0.5000 0.5000 0.2632  plane waves:    5792
 k-point 232 :   0.5000 0.5000 0.2895  plane waves:    5788
 k-point 233 :   0.5000 0.5000 0.3158  plane waves:    5796
 k-point 234 :   0.5000 0.5000 0.3421  plane waves:    5796
 k-point 235 :   0.5000 0.5000 0.3684  plane waves:    5796
 k-point 236 :   0.5000 0.5000 0.3947  plane waves:    5784
 k-point 237 :   0.5000 0.5000 0.4211  plane waves:    5796
 k-point 238 :   0.5000 0.5000 0.4474  plane waves:    5800
 k-point 239 :   0.5000 0.5000 0.4737  plane waves:    5800
 k-point 240 :   0.5000 0.5000 0.5000  plane waves:    5808

 maximum and minimum number of plane-waves per node :      1473     1421

 maximum number of plane-waves:      5826
 maximum index in each direction: 
   IXMAX=    6   IYMAX=   10   IZMAX=   19
   IXMIN=   -7   IYMIN=  -10   IZMIN=  -20


 parallel 3D FFT for wavefunctions:
    minimum data exchange during FFTs selected (reduces bandwidth)
 parallel 3D FFT for charge:
    minimum data exchange during FFTs selected (reduces bandwidth)


 total amount of memory used by VASP MPI-rank0   348843. kBytes
=======================================================================

   base      :      30000. kBytes
   nonl-proj :     103070. kBytes
   fftplans  :        586. kBytes
   grid      :       1453. kBytes
   one-center:        155. kBytes
   wavefun   :     213579. kBytes
 
     INWAV:  cpu time   19.2842: real time   19.3472
 initial charge density was supplied:
 number of electron     116.0000117 magnetization      36.0000081
 keeping initial charge density in first step


--------------------------------------------------------------------------------------------------------


 Maximum index for augmentation-charges          409 (set IRDMAX)


--------------------------------------------------------------------------------------------------------


 First call to EWALD:  gamma=   0.296
 Maximum number of real-space cells 4x 3x 2
 Maximum number of reciprocal cells 2x 3x 5

    FEWALD:  cpu time    0.0043: real time    0.0043


--------------------------------------- Iteration      1(   1)  ---------------------------------------


    POTLOK:  cpu time    0.0327: real time    0.0331
    SETDIJ:  cpu time    0.0030: real time    0.0031
    TRIAL :  cpu time    5.5214: real time    5.5338
    CORREC:  cpu time    0.0076: real time    0.0076
    --------------------------------------------
      LOOP:  cpu time    5.6733: real time    5.6884

 eigenvalue-minimisations  :     0
 total energy-change (2. order) : 0.2448680E+02  (-0.1144031E+03)
 number of electron     116.0000117 magnetization      36.0000081
 augmentation part      116.0000117 magnetization      36.0000081

 Free energy of the ion-electron system (eV)
  ---------------------------------------------------
  alpha Z        PSCENC =       466.11379109
  Ewald energy   TEWEN  =     -6422.67036760
  -Hartree energ DENC   =     -1904.98711320
  -exchange      EXHF   =         0.00000000
  -V(xc)+E(xc)   XCENC  =       216.21512703
  PAW double counting   =      9216.18584694    -9073.98910269
  entropy T*S    EENTRO =        -0.00069113
  eigenvalues    EBANDS =      -129.97433912
  atomic energy  EATOM  =      7657.59362038
  ---------------------------------------------------
  free energy    TOTEN  =        24.48679857 eV

  energy without entropy =       24.48748971  energy(sigma->0) =       24.48714414


--------------------------------------------------------------------------------------------------------




--------------------------------------- Iteration      1(   2)  ---------------------------------------


    TRIAL :  cpu time    5.4769: real time    5.4885
    CORREC:  cpu time    0.0081: real time    0.0081
    --------------------------------------------
      LOOP:  cpu time    5.4906: real time    5.5054

 eigenvalue-minimisations  :     0
 total energy-change (2. order) :-0.8810209E+02  (-0.6531018E+02)
 number of electron     116.0000117 magnetization      36.0000081
 augmentation part      116.0000117 magnetization      36.0000081

 Free energy of the ion-electron system (eV)
  ---------------------------------------------------
  alpha Z        PSCENC =       466.11379109
  Ewald energy   TEWEN  =     -6422.67036760
  -Hartree energ DENC   =     -1904.98711320
  -exchange      EXHF   =         0.00000000
  -V(xc)+E(xc)   XCENC  =       216.21512703
  PAW double counting   =      9216.18584694    -9073.98910269
  entropy T*S    EENTRO =        -0.00161574
  eigenvalues    EBANDS =      -218.07640090
  atomic energy  EATOM  =      7657.59362038
  ---------------------------------------------------
  free energy    TOTEN  =       -63.61529009 eV

  energy without entropy =      -63.61367435  energy(sigma->0) =      -63.61448222


--------------------------------------------------------------------------------------------------------




--------------------------------------- Iteration      1(   3)  ---------------------------------------


    TRIAL :  cpu time    5.3885: real time    5.4002
    CORREC:  cpu time    0.0072: real time    0.0072
    --------------------------------------------
      LOOP:  cpu time    5.3977: real time    5.4168

 eigenvalue-minimisations  :     0
 total energy-change (2. order) :-0.4615864E+02  (-0.2361149E+02)
 number of electron     116.0000117 magnetization      36.0000081
 augmentation part      116.0000117 magnetization      36.0000081

 Free energy of the ion-electron system (eV)
  ---------------------------------------------------
  alpha Z        PSCENC =       466.11379109
  Ewald energy   TEWEN  =     -6422.67036760
  -Hartree energ DENC   =     -1904.98711320
  -exchange      EXHF   =         0.00000000
  -V(xc)+E(xc)   XCENC  =       216.21512703
  PAW double counting   =      9216.18584694    -9073.98910269
  entropy T*S    EENTRO =        -0.00187792
  eigenvalues    EBANDS =      -264.23411149
  atomic energy  EATOM  =      7657.59362038
  ---------------------------------------------------
  free energy    TOTEN  =      -109.77392529 eV

  energy without entropy =     -109.77204736  energy(sigma->0) =     -109.77298633


--------------------------------------------------------------------------------------------------------




--------------------------------------- Iteration      1(   4)  ---------------------------------------


    TRIAL :  cpu time    5.4469: real time    5.4586
    CORREC:  cpu time    0.0066: real time    0.0067
    --------------------------------------------
      LOOP:  cpu time    5.4551: real time    5.4754

 eigenvalue-minimisations  :     0
 total energy-change (2. order) :-0.1545746E+02  (-0.7096522E+01)
 number of electron     116.0000117 magnetization      36.0000081
 augmentation part      116.0000117 magnetization      36.0000081

 Free energy of the ion-electron system (eV)
  ---------------------------------------------------
  alpha Z        PSCENC =       466.11379109
  Ewald energy   TEWEN  =     -6422.67036760
  -Hartree energ DENC   =     -1904.98711320
  -exchange      EXHF   =         0.00000000
  -V(xc)+E(xc)   XCENC  =       216.21512703
  PAW double counting   =      9216.18584694    -9073.98910269
  entropy T*S    EENTRO =        -0.00215875
  eigenvalues    EBANDS =      -279.69131215
  atomic energy  EATOM  =      7657.59362038
  ---------------------------------------------------
  free energy    TOTEN  =      -125.23138814 eV

  energy without entropy =     -125.22922939  energy(sigma->0) =     -125.23030876


--------------------------------------------------------------------------------------------------------




--------------------------------------- Iteration      1(   5)  ---------------------------------------


    TRIAL :  cpu time    5.3724: real time    5.3840
    CORREC:  cpu time    0.0066: real time    0.0066
    --------------------------------------------
      LOOP:  cpu time    5.3815: real time    5.4010

 eigenvalue-minimisations  :     0
 total energy-change (2. order) :-0.4816104E+01  (-0.3256480E+01)
 number of electron     116.0000117 magnetization      36.0000081
 augmentation part      116.0000117 magnetization      36.0000081

 Free energy of the ion-electron system (eV)
  ---------------------------------------------------
  alpha Z        PSCENC =       466.11379109
  Ewald energy   TEWEN  =     -6422.67036760
  -Hartree energ DENC   =     -1904.98711320
  -exchange      EXHF   =         0.00000000
  -V(xc)+E(xc)   XCENC  =       216.21512703
  PAW double counting   =      9216.18584694    -9073.98910269
  entropy T*S    EENTRO =        -0.00243428
  eigenvalues    EBANDS =      -284.50713581
  atomic energy  EATOM  =      7657.59362038
  ---------------------------------------------------
  free energy    TOTEN  =      -130.04749262 eV

  energy without entropy =     -130.04505834  energy(sigma->0) =     -130.04627548


--------------------------------------------------------------------------------------------------------




--------------------------------------- Iteration      1(   6)  ---------------------------------------


    TRIAL :  cpu time    5.2258: real time    5.2368
    CORREC:  cpu time    0.0081: real time    0.0081
    --------------------------------------------
      LOOP:  cpu time    5.2352: real time    5.2547

 eigenvalue-minimisations  :     0
 total energy-change (2. order) :-0.2441747E+01  (-0.1625059E+01)
 number of electron     116.0000117 magnetization      36.0000081
 augmentation part      116.0000117 magnetization      36.0000081

 Free energy of the ion-electron system (eV)
  ---------------------------------------------------
  alpha Z        PSCENC =       466.11379109
  Ewald energy   TEWEN  =     -6422.67036760
  -Hartree energ DENC   =     -1904.98711320
  -exchange      EXHF   =         0.00000000
  -V(xc)+E(xc)   XCENC  =       216.21512703
  PAW double counting   =      9216.18584694    -9073.98910269
  entropy T*S    EENTRO =        -0.00235713
  eigenvalues    EBANDS =      -286.94860711
  atomic energy  EATOM  =      7657.59362038
  ---------------------------------------------------
  free energy    TOTEN  =      -132.48923945 eV

  energy without entropy =     -132.48688233  energy(sigma->0) =     -132.48806089


--------------------------------------------------------------------------------------------------------




[...]
     79       8.4859      0.00000
     80       8.4859      0.00000
     81      10.0342      0.00000
     82      10.0343      0.00000
     83      10.4189      0.00000
     84      10.4208      0.00000
     85      11.6794      0.00000
     86      11.7214      0.00000
     87      11.7398      0.00000
     88      11.8023      0.00000
     89      12.3597      0.00000
     90      13.3914      0.00000

 k-point   240 :       0.5000    0.5000    0.5000
  band No.  band energies     occupation 
      1     -14.4454      1.00000
      2     -14.4454      1.00000
      3     -14.2454      1.00000
      4     -14.2454      1.00000
      5     -13.9241      1.00000
      6     -13.9241      1.00000
      7     -13.9143      1.00000
      8     -13.9143      1.00000
      9     -13.6173      1.00000
     10     -13.6173      1.00000
     11      -2.5514      1.00000
     12      -2.5514      1.00000
     13      -2.0619      1.00000
     14      -2.0619      1.00000
     15      -1.8513      1.00000
     16      -1.8513      1.00000
     17      -1.4190      1.00000
     18      -1.4190      1.00000
     19      -0.8066      1.00000
     20      -0.8066      1.00000
     21      -0.5007      1.00000
     22      -0.5007      1.00000
     23      -0.4161      1.00000
     24      -0.4161      1.00000
     25      -0.0547      1.00000
     26      -0.0547      1.00000
     27      -0.0166      1.00000
     28      -0.0166      1.00000
     29       0.1563      1.00000
     30       0.1563      1.00000
     31       0.7077      1.00000
     32       0.7077      1.00000
     33       0.9716      1.00000
     34       0.9716      1.00000
     35       1.0003      1.00000
     36       1.0003      1.00000
     37       1.5913      1.00000
     38       1.5913      1.00000
     39       2.1129      1.00000
     40       2.1129      1.00000
     41       5.7024      0.00000
     42       5.7024      0.00000
     43       6.2060      0.00000
     44       6.2060      0.00000
     45       6.4739      0.00000
     46       6.4739      0.00000
     47       6.5808      0.00000
     48       6.5808      0.00000
     49       6.9614      0.00000
     50       6.9614      0.00000
     51       6.9841      0.00000
     52       6.9841      0.00000
     53       7.0730      0.00000
     54       7.0730      0.00000
     55       7.1828      0.00000
     56       7.1828      0.00000
     57       7.3763      0.00000
     58       7.3763      0.00000
     59       7.5719      0.00000
     60       7.5719      0.00000
     61       7.5808      0.00000
     62       7.5808      0.00000
     63       7.6877      0.00000
     64       7.6877      0.00000
     65       7.9163      0.00000
     66       7.9163      0.00000
     67       7.9530      0.00000
     68       7.9530      0.00000
     69       8.0434      0.00000
     70       8.0434      0.00000
     71       8.0496      0.00000
     72       8.0496      0.00000
     73       8.0965      0.00000
     74       8.0965      0.00000
     75       8.1343      0.00000
     76       8.1343      0.00000
     77       8.2000      0.00000
     78       8.2000      0.00000
     79       8.4858      0.00000
     80       8.4858      0.00000
     81      10.0344      0.00000
     82      10.0345      0.00000
     83      10.4186      0.00000
     84      10.4207      0.00000
     85      11.6814      0.00000
     86      11.7264      0.00000
     87      11.7410      0.00000
     88      11.7982      0.00000
     89      12.3649      0.00000
     90      13.4143      0.00000


--------------------------------------------------------------------------------------------------------


 soft charge-density along one line, spin component           1
         0         1         2         3         4         5         6         7         8         9
 total charge-density along one line
 
 soft charge-density along one line, spin component           2
         0         1         2         3         4         5         6         7         8         9
 total charge-density along one line
 
 pseudopotential strength for first ion, spin component:           1
 -9.833  -0.000  -0.000   0.067  -0.000 -10.385  -0.000  -0.000
 -0.000  -9.494  -0.079   0.000   0.351  -0.000 -10.044  -0.083
 -0.000  -0.079  -9.531  -0.000  -0.295  -0.000  -0.083 -10.082
  0.067   0.000  -0.000  -9.745  -0.000   0.067   0.000  -0.000
 -0.000   0.351  -0.295  -0.000  -8.757  -0.000   0.361  -0.304
-10.385  -0.000  -0.000   0.067  -0.000 -10.922  -0.000  -0.000
 -0.000 -10.044  -0.083   0.000   0.361  -0.000 -10.579  -0.087
 -0.000  -0.083 -10.082  -0.000  -0.304  -0.000  -0.087 -10.618
  0.067   0.000  -0.000 -10.298  -0.000   0.067   0.000  -0.000
 -0.000   0.361  -0.304  -0.000  -9.284  -0.000   0.373  -0.315
 -0.000  -0.007  -0.013  -0.000   0.008  -0.000  -0.006  -0.012
 -0.000  -0.013  -0.024  -0.000   0.016  -0.000  -0.012  -0.023
 -0.000  -0.009   0.001   0.000  -0.001  -0.000  -0.009   0.001
  0.000   0.002  -0.010  -0.000  -0.002   0.000   0.001  -0.011
 -0.001   0.000   0.000  -0.013  -0.000  -0.001   0.000   0.000
 -0.000  -0.010   0.004   0.000   0.001  -0.000  -0.010   0.004
  0.000   0.004  -0.010  -0.000  -0.003   0.000   0.003  -0.010
 -0.003   0.000   0.000  -0.015  -0.000  -0.003   0.000   0.000
 pseudopotential strength for first ion, spin component:           2
 -4.597   0.000  -0.000   0.009   0.000  -5.116   0.000  -0.000
  0.000  -4.663   0.006   0.000  -0.302   0.000  -5.187   0.004
 -0.000   0.006  -4.642   0.000   0.281  -0.000   0.004  -5.166
  0.009   0.000   0.000  -4.556   0.000   0.008   0.000   0.000
  0.000  -0.302   0.281   0.000  -5.303   0.000  -0.304   0.283
 -5.116   0.000  -0.000   0.008   0.000  -5.600   0.000  -0.000
  0.000  -5.187   0.004   0.000  -0.304   0.000  -5.678   0.002
 -0.000   0.004  -5.166   0.000   0.283  -0.000   0.002  -5.656
  0.008   0.000   0.000  -5.076   0.000   0.006   0.000   0.000
  0.000  -0.304   0.283   0.000  -5.828   0.000  -0.308   0.285
 -0.000  -0.035  -0.045  -0.000   0.031  -0.000  -0.035  -0.045
 -0.000  -0.070  -0.089  -0.000   0.060  -0.000  -0.070  -0.089
 -0.000  -0.010  -0.017   0.000  -0.006  -0.000  -0.010  -0.017
  0.000  -0.014  -0.017  -0.000   0.006   0.000  -0.014  -0.017
  0.010   0.000   0.000   0.002  -0.000   0.010   0.000   0.000
 -0.000  -0.011  -0.019   0.000  -0.006  -0.000  -0.011  -0.019
  0.000  -0.016  -0.018  -0.000   0.007   0.000  -0.016  -0.018
  0.011   0.000   0.000   0.002  -0.000   0.011   0.000   0.000
 total augmentation occupancy for first ion, spin component:           1
  1.200   0.000   0.000   0.000   0.000   0.000   0.000   0.000   0.000   0.000   0.000   0.000   0.000   0.000   0.000   0.000
  0.000   1.200   0.000   0.000   0.000   0.000   0.000   0.000   0.000   0.000   0.000   0.000   0.000   0.000   0.000   0.000
  0.000   0.000   1.200   0.000   0.000   0.000   0.000   0.000   0.000   0.000   0.000   0.000   0.000   0.000   0.000   0.000
  0.000   0.000   0.000   1.200   0.000   0.000   0.000   0.000   0.000   0.000   0.000   0.000   0.000   0.000   0.000   0.000
  0.000   0.000   0.000   0.000   1.200   0.000   0.000   0.000   0.000   0.000   0.000   0.000   0.000   0.000   0.000   0.000
  0.000   0.000   0.000   0.000   0.000   0.000   0.000   0.000   0.000   0.000   0.000   0.000   0.000   0.000   0.000   0.000
  0.000   0.000   0.000   0.000   0.000   0.000   0.000   0.000   0.000   0.000   0.000   0.000   0.000   0.000   0.000   0.000
  0.000   0.000   0.000   0.000   0.000   0.000   0.000   0.000   0.000   0.000   0.000   0.000   0.000   0.000   0.000   0.000
  0.000   0.000   0.000   0.000   0.000   0.000   0.000   0.000   0.000   0.000   0.000   0.000   0.000   0.000   0.000   0.000
  0.000   0.000   0.000   0.000   0.000   0.000   0.000   0.000   0.000   0.000   0.000   0.000   0.000   0.000   0.000   0.000
  0.000   0.000   0.000   0.000   0.000   0.000   0.000   0.000   0.000   0.000   1.000   0.000   0.000   0.000   0.000   0.000
  0.000   0.000   0.000   0.000   0.000   0.000   0.000   0.000   0.000   0.000   0.000   0.000   0.000   0.000   0.000   0.000
  0.000   0.000   0.000   0.000   0.000   0.000   0.000   0.000   0.000   0.000   0.000   0.000   0.000   0.000   0.000   0.000
  0.000   0.000   0.000   0.000   0.000   0.000   0.000   0.000   0.000   0.000   0.000   0.000   0.000   0.000   0.000   0.000
  0.000   0.000   0.000   0.000   0.000   0.000   0.000   0.000   0.000   0.000   0.000   0.000   0.000   0.000   0.000   0.000
  0.000   0.000   0.000   0.000   0.000   0.000   0.000   0.000   0.000   0.000   0.000   0.000   0.000   0.000   0.000   0.000
  0.000   0.000   0.000   0.000   0.000   0.000   0.000   0.000   0.000   0.000   0.000   0.000   0.000   0.000   0.000   0.000
  0.000   0.000   0.000   0.000   0.000   0.000   0.000   0.000   0.000   0.000   0.000   0.000   0.000   0.000   0.000   0.000
 total augmentation occupancy for first ion, spin component:           2
  0.686   0.000   0.000   0.000   0.000   0.000   0.000   0.000   0.000   0.000   0.000   0.000   0.000   0.000   0.000   0.000
  0.000   0.686   0.000   0.000   0.000   0.000   0.000   0.000   0.000   0.000   0.000   0.000   0.000   0.000   0.000   0.000
  0.000   0.000   0.686   0.000   0.000   0.000   0.000   0.000   0.000   0.000   0.000   0.000   0.000   0.000   0.000   0.000
  0.000   0.000   0.000   0.686   0.000   0.000   0.000   0.000   0.000   0.000   0.000   0.000   0.000   0.000   0.000   0.000
  0.000   0.000   0.000   0.000   0.686   0.000   0.000   0.000   0.000   0.000   0.000   0.000   0.000   0.000   0.000   0.000
  0.000   0.000   0.000   0.000   0.000   0.000   0.000   0.000   0.000   0.000   0.000   0.000   0.000   0.000   0.000   0.000
  0.000   0.000   0.000   0.000   0.000   0.000   0.000   0.000   0.000   0.000   0.000   0.000   0.000   0.000   0.000   0.000
  0.000   0.000   0.000   0.000   0.000   0.000   0.000   0.000   0.000   0.000   0.000   0.000   0.000   0.000   0.000   0.000
  0.000   0.000   0.000   0.000   0.000   0.000   0.000   0.000   0.000   0.000   0.000   0.000   0.000   0.000   0.000   0.000
  0.000   0.000   0.000   0.000   0.000   0.000   0.000   0.000   0.000   0.000   0.000   0.000   0.000   0.000   0.000   0.000
  0.000   0.000   0.000   0.000   0.000   0.000   0.000   0.000   0.000   0.000   0.571   0.000   0.000   0.000   0.000   0.000
  0.000   0.000   0.000   0.000   0.000   0.000   0.000   0.000   0.000   0.000   0.000   0.000   0.000   0.000   0.000   0.000
  0.000   0.000   0.000   0.000   0.000   0.000   0.000   0.000   0.000   0.000   0.000   0.000   0.000   0.000   0.000   0.000
  0.000   0.000   0.000   0.000   0.000   0.000   0.000   0.000   0.000   0.000   0.000   0.000   0.000   0.000   0.000   0.000
  0.000   0.000   0.000   0.000   0.000   0.000   0.000   0.000   0.000   0.000   0.000   0.000   0.000   0.000   0.000   0.000
  0.000   0.000   0.000   0.000   0.000   0.000   0.000   0.000   0.000   0.000   0.000   0.000   0.000   0.000   0.000   0.000
  0.000   0.000   0.000   0.000   0.000   0.000   0.000   0.000   0.000   0.000   0.000   0.000   0.000   0.000   0.000   0.000
  0.000   0.000   0.000   0.000   0.000   0.000   0.000   0.000   0.000   0.000   0.000   0.000   0.000   0.000   0.000   0.000


------------------------ aborting loop because EDIFF is reached ----------------------------------------


    CHARGE:  cpu time    0.1563: real time    0.1566
    FORLOC:  cpu time    0.0007: real time    0.0007
    FORNL :  cpu time    1.8783: real time    1.8825
    STRESS:  cpu time    3.2459: real time    3.2533
    FORCOR:  cpu time    0.0103: real time    0.0106
    FORHAR:  cpu time    0.0018: real time    0.0018
    OFIELD:  cpu time    0.0000: real time    0.0000

  FORCE on cell =-STRESS in cart. coord.  units (eV):
  Direction    XX          YY          ZZ          XY          YZ          ZX
  --------------------------------------------------------------------------------------
  Alpha Z   466.11379   466.11379   466.11379
  Ewald   -1716.21473 -2276.05693 -2430.41617    -0.00000    -0.00000     0.00000
  Hartree   841.65551   603.35913   463.15144    -0.00000    -0.00000    -0.00000
  E(xc)    -575.11502  -574.78074  -575.44369     0.00000    -0.00000     0.00000
  Local    -745.29389    32.53002   325.35709    -0.00000     0.00000    -0.00000
  n-local  -402.99934  -417.34894  -415.73665     0.00008    -0.00001    -0.00001
  augment   314.20995   316.91198   320.77677    -0.00000    -0.00000    -0.00000
  Kinetic  1817.39295  1849.73824  1846.65966    -0.00196     0.00009    -0.00008
  Fock        0.00000     0.00000     0.00000     0.00000     0.00000     0.00000
  -------------------------------------------------------------------------------------
  Total      -0.25077     0.46654     0.46225     0.00000     0.00000    -0.00000
  in kB      -1.87176     3.48227     3.45019     0.00000     0.00000    -0.00000
  external pressure =        1.69 kB  Pullay stress =        0.00 kB


 VOLUME and BASIS-vectors are now :
 -----------------------------------------------------------------------------
  energy-cutoff  :      520.00
  volume of cell :      214.66
      direct lattice vectors                 reciprocal lattice vectors
     3.716899580  0.000000000  0.000000000     0.269041436 -0.000000000  0.000000000
     0.000000000  5.407758681  0.000000000     0.000000000  0.184919494  0.000000000
     0.000000000  0.000000000 10.679309330    -0.000000000 -0.000000000  0.093639014

  length of vectors
     3.716899580  5.407758681 10.679309330     0.269041436  0.184919494  0.093639014


 FORCES acting on ions
    electron-ion (+dipol)            ewald-force                    non-local-force                 convergence-correction
 -----------------------------------------------------------------------------------------------
   0.101E-12 -.347E+02 -.365E+02   -.644E-13 0.340E+02 0.376E+02   0.842E-16 0.506E+00 -.118E+01   -.465E-13 0.324E+00 0.791E-01
   0.151E-12 0.347E+02 0.365E+02   0.520E-13 -.340E+02 -.376E+02   -.842E-16 -.506E+00 0.118E+01   -.376E-13 -.324E+00 -.791E-01
   0.154E-12 0.347E+02 -.365E+02   0.425E-13 -.340E+02 0.376E+02   -.842E-16 -.506E+00 -.118E+01   -.950E-13 -.324E+00 0.791E-01
   0.940E-13 -.347E+02 0.365E+02   -.567E-13 0.340E+02 -.376E+02   0.842E-16 0.506E+00 0.118E+01   -.426E-13 0.324E+00 -.791E-01
   -.344E-13 0.704E+02 0.652E+02   0.159E-13 -.664E+02 -.635E+02   -.584E-15 -.351E+01 -.148E+01   0.185E-13 -.400E+00 -.239E+00
   0.312E-13 -.704E+02 -.652E+02   -.575E-14 0.664E+02 0.635E+02   0.584E-15 0.351E+01 0.148E+01   0.126E-13 0.400E+00 0.239E+00
   0.179E-15 0.704E+02 -.652E+02   0.592E-14 -.664E+02 0.635E+02   -.584E-15 -.351E+01 0.148E+01   0.103E-13 -.400E+00 0.239E+00
   0.166E-13 -.704E+02 0.652E+02   -.214E-14 0.664E+02 -.635E+02   0.584E-15 0.351E+01 -.148E+01   0.110E-12 0.400E+00 -.239E+00
   0.150E-12 -.560E-12 -.224E-11   -.354E-14 -.284E-13 -.284E-13   -.635E-22 -.263E-21 0.570E-21   -.275E-13 -.375E-12 0.743E-13
   0.105E-12 -.293E+02 0.279E+02   0.342E-13 0.316E+02 -.288E+02   -.473E-15 -.284E+01 0.660E+00   -.732E-13 0.579E+00 0.322E+00
   0.126E-12 -.293E+02 -.279E+02   0.326E-13 0.316E+02 0.288E+02   -.473E-15 -.284E+01 -.660E+00   -.305E-13 0.579E+00 -.322E+00
   0.145E-12 0.293E+02 0.279E+02   -.378E-13 -.316E+02 -.288E+02   0.473E-15 0.284E+01 0.660E+00   -.132E-14 -.579E+00 0.322E+00
   -.331E-13 0.180E+02 -.375E+02   -.231E-13 -.154E+02 0.372E+02   -.381E-15 -.229E+01 0.357E+00   0.656E-13 -.235E+00 -.138E+00
   -.238E-14 -.180E+02 0.375E+02   0.232E-13 0.154E+02 -.372E+02   0.381E-15 0.229E+01 -.357E+00   0.167E-13 0.235E+00 0.138E+00
   0.180E-12 0.293E+02 -.279E+02   -.303E-13 -.316E+02 0.288E+02   0.473E-15 0.284E+01 -.660E+00   -.280E-13 -.579E+00 -.322E+00
   0.103E-14 -.180E+02 -.375E+02   0.215E-13 0.154E+02 0.372E+02   0.381E-15 0.229E+01 0.357E+00   0.193E-13 0.235E+00 -.138E+00
   0.148E-12 -.937E-12 0.566E-12   0.910E-15 -.204E-13 0.426E-13   0.974E-22 0.195E-21 -.313E-21   -.162E-13 -.130E-11 -.211E-12
   -.336E-13 0.180E+02 0.375E+02   -.910E-14 -.154E+02 -.372E+02   -.381E-15 -.229E+01 -.357E+00   0.585E-14 -.235E+00 0.138E+00
 -----------------------------------------------------------------------------------------------
   0.130E-11 0.402E-11 0.543E-12   -.402E-14 -.497E-13 0.924E-13   -.225E-20 -.133E-14 0.111E-15   -.139E-12 -.307E-11 0.766E-12
 
 
 POSITION                                       TOTAL-FORCE (eV/Angst)
 -----------------------------------------------------------------------------------
      1.85845      3.95701      1.41801         0.000000      0.057950      0.039808
      1.85845      1.45075      9.26130        -0.000000     -0.057950     -0.039808
      1.85845      4.15462      6.75767        -0.000000     -0.057950      0.039808
      1.85845      1.25313      3.92164         0.000000      0.057950     -0.039808
      0.00000      4.07194      4.24253         0.000000      0.053475      0.042177
      0.00000      1.33582      6.43678        -0.000000     -0.053475     -0.042177
      0.00000      1.36806      1.09712         0.000000      0.053475     -0.042177
      0.00000      4.03970      9.58218        -0.000000     -0.053475      0.042177
      1.85845      0.00000      0.00000        -0.000000     -0.000000      0.000000
      1.85845      3.36377      8.67258         0.000000      0.020863      0.076109
      1.85845      0.65989      7.34639         0.000000      0.020863     -0.076109
      1.85845      4.74787      3.33292        -0.000000     -0.020863      0.076109
      0.00000      4.40249      6.36703         0.000000      0.105287     -0.096531
      0.00000      1.00527      4.31227        -0.000000     -0.105287      0.096531
      1.85845      2.04399      2.00673        -0.000000     -0.020863     -0.076109
      0.00000      3.70914      1.02738        -0.000000     -0.105287     -0.096531
      1.85845      2.70388      5.33965         0.000000     -0.000000     -0.000000
      0.00000      1.69861      9.65193         0.000000      0.105287      0.096531
 -----------------------------------------------------------------------------------
    total drift:                                0.000000      0.000000      0.000000


--------------------------------------------------------------------------------------------------------



  FREE ENERGIE OF THE ION-ELECTRON SYSTEM (eV)
  ---------------------------------------------------
  free  energy   TOTEN  =      -134.83534612 eV

  energy  without entropy=     -134.82871124  energy(sigma->0) =     -134.83202868
 


--------------------------------------------------------------------------------------------------------


    POTLOK:  cpu time    0.0414: real time    0.0416


--------------------------------------------------------------------------------------------------------


     LOOP+:  cpu time  107.4512: real time  107.8302
    4ORBIT:  cpu time    0.0000: real time    0.0000

 total amount of memory used by VASP MPI-rank0   348843. kBytes
=======================================================================

   base      :      30000. kBytes
   nonl-proj :     103070. kBytes
   fftplans  :        586. kBytes
   grid      :       1453. kBytes
   one-center:        155. kBytes
   wavefun   :     213579. kBytes
 
  
  
 General timing and accounting informations for this job:
 ========================================================
  
                  Total CPU time used (sec):      130.182
                            User time (sec):      127.079
                          System time (sec):        3.102
                         Elapsed time (sec):      131.256
  
                   Maximum memory used (kb):      549264.
                   Average memory used (kb):           0.
  
                          Minor page faults:       436573
                          Major page faults:            0
                 Voluntary context switches:         1688
