 running on  120 total cores
 distrk:  each k-point on   60 cores,    2 groups
 distr:  one band on    4 cores,   15 groups
 using from now: INCAR     
 vasp.6.1.0 28Jan20 (build Oct 05 2020 22:43:53) complex                        
  
 POSCAR found type information on POSCAR MnO 
 POSCAR found :  2 types and      18 ions
 scaLAPACK will be used
 -----------------------------------------------------------------------------
|                                                                             |
|           W    W    AA    RRRRR   N    N  II  N    N   GGGG   !!!           |
|           W    W   A  A   R    R  NN   N  II  NN   N  G    G  !!!           |
|           W    W  A    A  R    R  N N  N  II  N N  N  G       !!!           |
|           W WW W  AAAAAA  RRRRR   N  N N  II  N  N N  G  GGG   !            |
|           WW  WW  A    A  R   R   N   NN  II  N   NN  G    G                |
|           W    W  A    A  R    R  N    N  II  N    N   GGGG   !!!           |
|                                                                             |
|     For optimal performance we recommend to set                             |
|       NCORE = 4 - approx SQRT(number of cores).                             |
|     NCORE specifies how many cores store one orbital (NPAR=cpu/NCORE).      |
|     This setting can greatly improve the performance of VASP for DFT.       |
|     The default, NCORE=1 might be grossly inefficient on modern             |
|     multi-core architectures or massively parallel machines. Do your        |
|     own testing!!!!                                                         |
|     Unfortunately you need to use the default for GW and RPA                |
|     calculations (for HF NCORE is supported but not extensively tested      |
|     yet).                                                                   |
|                                                                             |
 -----------------------------------------------------------------------------

 -----------------------------------------------------------------------------
|                                                                             |
|               ----> ADVICE to this user running VASP <----                  |
|                                                                             |
|     You have a (more or less) 'large supercell' and for larger cells it     |
|     might be more efficient to use real-space projection operators.         |
|     Therefore, try LREAL= Auto in the INCAR file.                           |
|     Mind: For very accurate calculation, you might also keep the            |
|     reciprocal projection scheme (i.e. LREAL=.FALSE.).                      |
|                                                                             |
 -----------------------------------------------------------------------------

 LDA part: xc-table for Pade appr. of Perdew
 found WAVECAR, reading the header
  number of k-points has changed, file:    40 present:   240
  trying to continue reading WAVECAR, but it might fail
 WARNING: stress and forces are not correct
 POSCAR, INCAR and KPOINTS ok, starting setup
 FFT: planning ...
 reading WAVECAR
 the WAVECAR file was read successfully
 charge-density read from file: unknown                                 
 magnetization density read from file 1
 entering main loop
       N       E                     dE             d eps       ncg     rms          ort
 gam= 0.000 g(H,U,f)=  0.262E+03 0.240E+02 0.328E+00 ort(H,U,f) = 0.000E+00 0.000E+00 0.000E+00
SDA:   1     0.244867985747E+02    0.24487E+02   -0.11440E+03 21600   0.286E+03 0.000E+00
 gam= 0.382 g(H,U,f)=  0.883E+02 0.170E+02 0.585E-01 ort(H,U,f) = 0.133E+03 0.191E+02 0.581E-01
DMP:   2    -0.636152900907E+02   -0.88102E+02   -0.65310E+02 21600   0.105E+03 0.152E+03
 gam= 0.382 g(H,U,f)=  0.240E+02 0.972E+01 0.511E-01 ort(H,U,f) = 0.489E+02 0.173E+02 0.228E-01
DMP:   3    -0.109773925289E+03   -0.46159E+02   -0.23611E+02 21600   0.337E+02 0.662E+02
 gam= 0.382 g(H,U,f)=  0.612E+01 0.488E+01 0.671E-02 ort(H,U,f) = 0.640E+01 0.112E+02-0.282E-02
DMP:   4    -0.125231388137E+03   -0.15457E+02   -0.70965E+01 21600   0.110E+02 0.176E+02
 gam= 0.382 g(H,U,f)=  0.340E+01 0.241E+01 0.357E-02 ort(H,U,f) =-0.343E+00 0.644E+01 0.840E-03
DMP:   5    -0.130047492621E+03   -0.48161E+01   -0.32565E+01 21600   0.581E+01 0.609E+01
 gam= 0.382 g(H,U,f)=  0.136E+01 0.118E+01 0.530E-02 ort(H,U,f) = 0.513E+00 0.346E+01 0.432E-03
DMP:   6    -0.132489239451E+03   -0.24417E+01   -0.16251E+01 21600   0.254E+01 0.398E+01
 gam= 0.382 g(H,U,f)=  0.569E+00 0.565E+00 0.486E-02 ort(H,U,f) = 0.293E+00 0.180E+01 0.123E-01
DMP:   7    -0.133725974938E+03   -0.12367E+01   -0.77687E+00 21600   0.114E+01 0.210E+01
 gam= 0.382 g(H,U,f)=  0.252E+00 0.260E+00 0.105E-01 ort(H,U,f) = 0.215E+00 0.882E+00 0.334E-01
DMP:   8    -0.134347725920E+03   -0.62175E+00   -0.38187E+00 21600   0.523E+00 0.113E+01
 gam= 0.382 g(H,U,f)=  0.844E-01 0.110E+00 0.303E-02 ort(H,U,f) = 0.107E+00 0.397E+00 0.986E-02
DMP:   9    -0.134642480601E+03   -0.29475E+00   -0.15769E+00 21600   0.198E+00 0.514E+00
 gam= 0.382 g(H,U,f)=  0.296E-01 0.433E-01 0.169E-02 ort(H,U,f) = 0.318E-01 0.164E+00 0.601E-02
DMP:  10    -0.134761948862E+03   -0.11947E+00   -0.60715E-01 21600   0.746E-01 0.202E+00
 gam= 0.382 g(H,U,f)=  0.104E-01 0.163E-01 0.104E-02 ort(H,U,f) = 0.953E-02 0.652E-01 0.358E-02
DMP:  11    -0.134808045635E+03   -0.46097E-01   -0.23039E-01 21600   0.277E-01 0.783E-01
 gam= 0.382 g(H,U,f)=  0.362E-02 0.581E-02 0.568E-03 ort(H,U,f) = 0.225E-02 0.247E-01 0.199E-02
DMP:  12    -0.134825395994E+03   -0.17350E-01   -0.84170E-02 21600   0.100E-01 0.289E-01
 gam= 0.382 g(H,U,f)=  0.167E-02 0.198E-02 0.230E-03 ort(H,U,f) = 0.709E-03 0.888E-02 0.843E-03
DMP:  13    -0.134831704578E+03   -0.63086E-02   -0.31444E-02 21600   0.388E-02 0.104E-01
 gam= 0.382 g(H,U,f)=  0.691E-03 0.637E-03 0.820E-04 ort(H,U,f) = 0.558E-03 0.304E-02 0.315E-03
DMP:  14    -0.134834061872E+03   -0.23573E-02   -0.11626E-02 21600   0.141E-02 0.392E-02
 gam= 0.382 g(H,U,f)=  0.256E-03 0.193E-03 0.282E-04 ort(H,U,f) = 0.269E-03 0.987E-03 0.113E-03
DMP:  15    -0.134834917328E+03   -0.85546E-03   -0.40035E-03 21600   0.478E-03 0.137E-02
 gam= 0.382 g(H,U,f)=  0.105E-03 0.543E-04 0.958E-05 ort(H,U,f) = 0.113E-03 0.300E-03 0.403E-04
DMP:  16    -0.134835208236E+03   -0.29091E-03   -0.13698E-03 21600   0.169E-03 0.453E-03
 gam= 0.382 g(H,U,f)=  0.375E-04 0.139E-04 0.320E-05 ort(H,U,f) = 0.497E-04 0.843E-04 0.141E-04
DMP:  17    -0.134835306372E+03   -0.98137E-04   -0.44476E-04 21600   0.546E-04 0.148E-03
 gam= 0.382 g(H,U,f)=  0.133E-04 0.316E-05 0.104E-05 ort(H,U,f) = 0.161E-04 0.212E-04 0.479E-05
DMP:  18    -0.134835337032E+03   -0.30660E-04   -0.13449E-04 21600   0.176E-04 0.421E-04
 gam= 0.382 g(H,U,f)=  0.550E-05 0.643E-06 0.327E-06 ort(H,U,f) = 0.567E-05 0.455E-05 0.157E-05
DMP:  19    -0.134835346118E+03   -0.90854E-05   -0.43905E-05 21600   0.647E-05 0.118E-04
 final diagonalization
   1 F= -.13483535E+03 E0= -.13483203E+03  d E =-.663487E-02  mag=    36.0000
/home/users/zdcao/learning_hubbard_U/vasp_aims_code/HT_test2/1000255778/dftu/band
finished
