  18  18   0   0
  0.1192529E+02  0.3716900E-09  0.5407759E-09  0.1067931E-08  0.5000000E-15
  1.000000000000000E-004
  CAR 
 unknown system                          
     16.30981556    -16.80325990  301      3.39912932      1.00000000
    -16.803  0.0000E+00  0.0000E+00  0.0000E+00  0.0000E+00
    -16.693  0.0000E+00  0.0000E+00  0.0000E+00  0.0000E+00
    -16.583  0.0000E+00  0.0000E+00  0.0000E+00  0.0000E+00
    -16.472  0.0000E+00  0.0000E+00  0.0000E+00  0.0000E+00
    -16.362  0.0000E+00  0.0000E+00  0.0000E+00  0.0000E+00
    -16.251  0.0000E+00  0.0000E+00  0.0000E+00  0.0000E+00
    -16.141  0.0000E+00  0.0000E+00  0.0000E+00  0.0000E+00
    -16.031  0.0000E+00  0.0000E+00  0.0000E+00  0.0000E+00
    -15.920  0.0000E+00  0.0000E+00  0.0000E+00  0.0000E+00
    -15.810  0.0000E+00  0.0000E+00  0.0000E+00  0.0000E+00
    -15.699  0.0000E+00  0.0000E+00  0.0000E+00  0.0000E+00
    -15.589  0.6209E-17  0.0000E+00  0.6853E-18  0.0000E+00
    -15.479  0.9182E-08  0.0000E+00  0.1014E-08  0.0000E+00
    -15.368  0.1634E-02  0.5955E-10  0.1804E-03  0.6573E-11
    -15.258  0.2828E+00  0.1279E-03  0.3140E-01  0.1411E-04
    -15.148  0.1584E+01  0.1077E+00  0.2062E+00  0.1190E-01
    -15.037  0.3113E+01  0.1207E+01  0.5498E+00  0.1451E+00
    -14.927  0.3405E+01  0.2668E+01  0.9257E+00  0.4396E+00
    -14.816  0.5289E+01  0.3664E+01  0.1509E+01  0.8440E+00
    -14.706  0.6373E+01  0.4415E+01  0.2213E+01  0.1331E+01
    -14.596  0.5822E+01  0.6446E+01  0.2855E+01  0.2043E+01
    -14.485  0.5151E+01  0.6825E+01  0.3424E+01  0.2796E+01
    -14.375  0.3053E+01  0.5235E+01  0.3761E+01  0.3374E+01
    -14.265  0.2517E+01  0.3402E+01  0.4039E+01  0.3749E+01
    -14.154  0.3379E+01  0.2427E+01  0.4412E+01  0.4017E+01
    -14.044  0.1395E+02  0.1906E+01  0.5952E+01  0.4228E+01
    -13.933  0.1635E+02  0.1006E+02  0.7756E+01  0.5338E+01
    -13.823  0.2213E+01  0.1423E+02  0.8000E+01  0.6909E+01
    -13.713  0.8780E+00  0.9685E+01  0.8097E+01  0.7978E+01
    -13.602  0.8950E+01  0.1218E+01  0.9085E+01  0.8113E+01
    -13.492  0.8140E+01  0.1003E+02  0.9983E+01  0.9219E+01
    -13.382  0.1515E+00  0.6909E+01  0.1000E+02  0.9982E+01
    -13.271  0.2814E-05  0.1621E+00  0.1000E+02  0.1000E+02
    -13.161  0.8034E-14  0.5442E-05  0.1000E+02  0.1000E+02
    -13.050  0.0000E+00  0.2955E-13  0.1000E+02  0.1000E+02
    -12.940  0.0000E+00  0.0000E+00  0.1000E+02  0.1000E+02
    -12.830  0.0000E+00  0.0000E+00  0.1000E+02  0.1000E+02
    -12.719  0.0000E+00  0.0000E+00  0.1000E+02  0.1000E+02
    -12.609  0.0000E+00  0.0000E+00  0.1000E+02  0.1000E+02
    -12.499  0.0000E+00  0.0000E+00  0.1000E+02  0.1000E+02
    -12.388  0.0000E+00  0.0000E+00  0.1000E+02  0.1000E+02
    -12.278  0.0000E+00  0.0000E+00  0.1000E+02  0.1000E+02
    -12.167  0.0000E+00  0.0000E+00  0.1000E+02  0.1000E+02
    -12.057  0.0000E+00  0.0000E+00  0.1000E+02  0.1000E+02
    -11.947  0.0000E+00  0.0000E+00  0.1000E+02  0.1000E+02
    -11.836  0.0000E+00  0.0000E+00  0.1000E+02  0.1000E+02
    -11.726  0.0000E+00  0.0000E+00  0.1000E+02  0.1000E+02
    -11.616  0.0000E+00  0.0000E+00  0.1000E+02  0.1000E+02
    -11.505  0.0000E+00  0.0000E+00  0.1000E+02  0.1000E+02
    -11.395  0.0000E+00  0.0000E+00  0.1000E+02  0.1000E+02
    -11.284  0.0000E+00  0.0000E+00  0.1000E+02  0.1000E+02
    -11.174  0.0000E+00  0.0000E+00  0.1000E+02  0.1000E+02
    -11.064  0.0000E+00  0.0000E+00  0.1000E+02  0.1000E+02
    -10.953  0.0000E+00  0.0000E+00  0.1000E+02  0.1000E+02
    -10.843  0.0000E+00  0.0000E+00  0.1000E+02  0.1000E+02
    -10.733  0.0000E+00  0.0000E+00  0.1000E+02  0.1000E+02
    -10.622  0.0000E+00  0.0000E+00  0.1000E+02  0.1000E+02
    -10.512  0.0000E+00  0.0000E+00  0.1000E+02  0.1000E+02
    -10.401  0.0000E+00  0.0000E+00  0.1000E+02  0.1000E+02
    -10.291  0.0000E+00  0.0000E+00  0.1000E+02  0.1000E+02
    -10.181  0.0000E+00  0.0000E+00  0.1000E+02  0.1000E+02
    -10.070  0.0000E+00  0.0000E+00  0.1000E+02  0.1000E+02
     -9.960  0.0000E+00  0.0000E+00  0.1000E+02  0.1000E+02
     -9.850  0.0000E+00  0.0000E+00  0.1000E+02  0.1000E+02
     -9.739  0.0000E+00  0.0000E+00  0.1000E+02  0.1000E+02
     -9.629  0.0000E+00  0.0000E+00  0.1000E+02  0.1000E+02
     -9.518  0.0000E+00  0.0000E+00  0.1000E+02  0.1000E+02
     -9.408  0.0000E+00  0.0000E+00  0.1000E+02  0.1000E+02
     -9.298  0.0000E+00  0.0000E+00  0.1000E+02  0.1000E+02
     -9.187  0.0000E+00  0.0000E+00  0.1000E+02  0.1000E+02
     -9.077  0.0000E+00  0.0000E+00  0.1000E+02  0.1000E+02
     -8.966  0.0000E+00  0.0000E+00  0.1000E+02  0.1000E+02
     -8.856  0.0000E+00  0.0000E+00  0.1000E+02  0.1000E+02
     -8.746  0.0000E+00  0.0000E+00  0.1000E+02  0.1000E+02
     -8.635  0.0000E+00  0.0000E+00  0.1000E+02  0.1000E+02
     -8.525  0.0000E+00  0.0000E+00  0.1000E+02  0.1000E+02
     -8.415  0.0000E+00  0.0000E+00  0.1000E+02  0.1000E+02
     -8.304  0.0000E+00  0.0000E+00  0.1000E+02  0.1000E+02
     -8.194  0.0000E+00  0.0000E+00  0.1000E+02  0.1000E+02
     -8.083  0.0000E+00  0.0000E+00  0.1000E+02  0.1000E+02
     -7.973  0.0000E+00  0.0000E+00  0.1000E+02  0.1000E+02
     -7.863  0.0000E+00  0.0000E+00  0.1000E+02  0.1000E+02
     -7.752  0.0000E+00  0.0000E+00  0.1000E+02  0.1000E+02
     -7.642  0.0000E+00  0.0000E+00  0.1000E+02  0.1000E+02
     -7.532  0.0000E+00  0.0000E+00  0.1000E+02  0.1000E+02
     -7.421  0.0000E+00  0.0000E+00  0.1000E+02  0.1000E+02
     -7.311  0.0000E+00  0.0000E+00  0.1000E+02  0.1000E+02
     -7.200  0.0000E+00  0.0000E+00  0.1000E+02  0.1000E+02
     -7.090  0.0000E+00  0.0000E+00  0.1000E+02  0.1000E+02
     -6.980  0.0000E+00  0.0000E+00  0.1000E+02  0.1000E+02
     -6.869  0.0000E+00  0.0000E+00  0.1000E+02  0.1000E+02
     -6.759  0.0000E+00  0.0000E+00  0.1000E+02  0.1000E+02
     -6.649  0.0000E+00  0.0000E+00  0.1000E+02  0.1000E+02
     -6.538  0.0000E+00  0.0000E+00  0.1000E+02  0.1000E+02
     -6.428  0.0000E+00  0.0000E+00  0.1000E+02  0.1000E+02
     -6.317  0.0000E+00  0.0000E+00  0.1000E+02  0.1000E+02
     -6.207  0.0000E+00  0.0000E+00  0.1000E+02  0.1000E+02
     -6.097  0.0000E+00  0.0000E+00  0.1000E+02  0.1000E+02
     -5.986  0.0000E+00  0.0000E+00  0.1000E+02  0.1000E+02
     -5.876  0.0000E+00  0.0000E+00  0.1000E+02  0.1000E+02
     -5.766  0.0000E+00  0.0000E+00  0.1000E+02  0.1000E+02
     -5.655  0.0000E+00  0.0000E+00  0.1000E+02  0.1000E+02
     -5.545  0.0000E+00  0.0000E+00  0.1000E+02  0.1000E+02
     -5.434  0.0000E+00  0.0000E+00  0.1000E+02  0.1000E+02
     -5.324  0.0000E+00  0.0000E+00  0.1000E+02  0.1000E+02
     -5.214  0.0000E+00  0.0000E+00  0.1000E+02  0.1000E+02
     -5.103  0.0000E+00  0.0000E+00  0.1000E+02  0.1000E+02
     -4.993  0.0000E+00  0.0000E+00  0.1000E+02  0.1000E+02
     -4.883  0.0000E+00  0.0000E+00  0.1000E+02  0.1000E+02
     -4.772  0.0000E+00  0.0000E+00  0.1000E+02  0.1000E+02
     -4.662  0.0000E+00  0.0000E+00  0.1000E+02  0.1000E+02
     -4.551  0.0000E+00  0.0000E+00  0.1000E+02  0.1000E+02
     -4.441  0.0000E+00  0.0000E+00  0.1000E+02  0.1000E+02
     -4.331  0.0000E+00  0.0000E+00  0.1000E+02  0.1000E+02
     -4.220  0.0000E+00  0.0000E+00  0.1000E+02  0.1000E+02
     -4.110  0.0000E+00  0.0000E+00  0.1000E+02  0.1000E+02
     -4.000  0.0000E+00  0.0000E+00  0.1000E+02  0.1000E+02
     -3.889  0.0000E+00  0.0000E+00  0.1000E+02  0.1000E+02
     -3.779  0.0000E+00  0.0000E+00  0.1000E+02  0.1000E+02
     -3.668  0.6032E-08  0.0000E+00  0.1000E+02  0.1000E+02
     -3.558  0.2591E-02  0.0000E+00  0.1000E+02  0.1000E+02
     -3.448  0.4660E+00  0.0000E+00  0.1005E+02  0.1000E+02
     -3.337  0.2521E+01  0.0000E+00  0.1033E+02  0.1000E+02
     -3.227  0.4152E+01  0.0000E+00  0.1079E+02  0.1000E+02
     -3.117  0.5934E+01  0.0000E+00  0.1144E+02  0.1000E+02
     -3.006  0.4596E+01  0.0000E+00  0.1195E+02  0.1000E+02
     -2.896  0.6952E+01  0.0000E+00  0.1272E+02  0.1000E+02
     -2.785  0.1265E+02  0.5476E-13  0.1411E+02  0.1000E+02
     -2.675  0.7674E+01  0.8031E-05  0.1496E+02  0.1000E+02
     -2.565  0.9643E+01  0.1223E+00  0.1603E+02  0.1001E+02
     -2.454  0.1170E+02  0.1432E+01  0.1732E+02  0.1017E+02
     -2.344  0.9232E+01  0.1369E+01  0.1834E+02  0.1032E+02
     -2.234  0.1530E+02  0.2542E+01  0.2002E+02  0.1060E+02
     -2.123  0.1580E+02  0.1678E+01  0.2177E+02  0.1079E+02
     -2.013  0.9044E+01  0.2367E+01  0.2277E+02  0.1105E+02
     -1.902  0.9761E+01  0.4053E+01  0.2384E+02  0.1150E+02
     -1.792  0.1086E+02  0.6418E+01  0.2504E+02  0.1221E+02
     -1.682  0.8506E+01  0.5652E+01  0.2598E+02  0.1283E+02
     -1.571  0.8313E+01  0.5588E+01  0.2690E+02  0.1345E+02
     -1.461  0.9059E+01  0.5870E+01  0.2790E+02  0.1409E+02
     -1.350  0.1004E+02  0.5936E+01  0.2901E+02  0.1475E+02
     -1.240  0.9008E+01  0.8676E+01  0.3000E+02  0.1571E+02
     -1.130  0.5854E+01  0.9739E+01  0.3065E+02  0.1678E+02
     -1.019  0.5894E+01  0.9233E+01  0.3130E+02  0.1780E+02
     -0.909  0.7992E+01  0.9212E+01  0.3218E+02  0.1882E+02
     -0.799  0.1054E+02  0.1086E+02  0.3334E+02  0.2002E+02
     -0.688  0.8812E+01  0.9592E+01  0.3432E+02  0.2107E+02
     -0.578  0.8239E+01  0.6565E+01  0.3523E+02  0.2180E+02
     -0.467  0.9928E+01  0.6704E+01  0.3632E+02  0.2254E+02
     -0.357  0.1154E+02  0.8007E+01  0.3760E+02  0.2342E+02
     -0.247  0.1277E+02  0.5065E+01  0.3901E+02  0.2398E+02
     -0.136  0.1321E+02  0.7214E+01  0.4046E+02  0.2478E+02
     -0.026  0.1957E+02  0.8345E+01  0.4262E+02  0.2570E+02
      0.084  0.2350E+02  0.9194E+01  0.4522E+02  0.2671E+02
      0.195  0.2202E+02  0.9100E+01  0.4765E+02  0.2772E+02
      0.305  0.1616E+02  0.5666E+01  0.4943E+02  0.2834E+02
      0.416  0.1069E+02  0.7740E+01  0.5061E+02  0.2920E+02
      0.526  0.1072E+02  0.6706E+01  0.5180E+02  0.2994E+02
      0.636  0.1031E+02  0.7862E+01  0.5293E+02  0.3081E+02
      0.747  0.8401E+01  0.1036E+02  0.5386E+02  0.3195E+02
      0.857  0.8645E+01  0.6721E+01  0.5481E+02  0.3269E+02
      0.967  0.1053E+02  0.8864E+01  0.5598E+02  0.3367E+02
      1.078  0.1050E+02  0.2876E+01  0.5714E+02  0.3399E+02
      1.188  0.8663E+01  0.1282E+01  0.5809E+02  0.3413E+02
      1.299  0.9246E+01  0.4023E+01  0.5911E+02  0.3457E+02
      1.409  0.9534E+01  0.8244E+01  0.6017E+02  0.3548E+02
      1.519  0.7010E+01  0.7449E+01  0.6094E+02  0.3631E+02
      1.630  0.7371E+01  0.8785E+01  0.6175E+02  0.3728E+02
      1.740  0.8454E+01  0.6385E+01  0.6269E+02  0.3798E+02
      1.850  0.9185E+01  0.6775E+01  0.6370E+02  0.3873E+02
      1.961  0.7039E+01  0.3441E+01  0.6448E+02  0.3911E+02
      2.071  0.1048E+02  0.3602E+01  0.6563E+02  0.3951E+02
      2.182  0.8563E+01  0.3911E+01  0.6658E+02  0.3994E+02
      2.292  0.7460E+01  0.5689E+00  0.6740E+02  0.4000E+02
      2.402  0.7741E+01  0.8794E-03  0.6826E+02  0.4000E+02
      2.513  0.7283E+01  0.4369E-09  0.6906E+02  0.4000E+02
      2.623  0.5065E+01  0.0000E+00  0.6962E+02  0.4000E+02
      2.733  0.6475E+01  0.0000E+00  0.7033E+02  0.4000E+02
      2.844  0.9655E+01  0.0000E+00  0.7140E+02  0.4000E+02
      2.954  0.1099E+02  0.0000E+00  0.7261E+02  0.4000E+02
      3.065  0.1193E+02  0.0000E+00  0.7393E+02  0.4000E+02
      3.175  0.1075E+02  0.0000E+00  0.7512E+02  0.4000E+02
      3.285  0.4859E+01  0.0000E+00  0.7565E+02  0.4000E+02
      3.396  0.3086E+01  0.0000E+00  0.7599E+02  0.4000E+02
      3.506  0.1494E+01  0.0000E+00  0.7616E+02  0.4000E+02
      3.616  0.4868E+00  0.0000E+00  0.7621E+02  0.4000E+02
      3.727  0.1462E+01  0.0000E+00  0.7637E+02  0.4000E+02
      3.837  0.1638E+01  0.0000E+00  0.7655E+02  0.4000E+02
      3.948  0.1631E+01  0.0000E+00  0.7673E+02  0.4000E+02
      4.058  0.1371E+01  0.0000E+00  0.7689E+02  0.4000E+02
      4.168  0.1961E+01  0.0000E+00  0.7710E+02  0.4000E+02
      4.279  0.3587E+01  0.0000E+00  0.7750E+02  0.4000E+02
      4.389  0.3980E+01  0.0000E+00  0.7794E+02  0.4000E+02
      4.499  0.3484E+01  0.0000E+00  0.7832E+02  0.4000E+02
      4.610  0.2806E+01  0.0000E+00  0.7863E+02  0.4000E+02
      4.720  0.3301E+00  0.2428E-14  0.7867E+02  0.4000E+02
      4.831  0.6968E+00  0.5313E-06  0.7874E+02  0.4000E+02
      4.941  0.1572E+01  0.1078E-01  0.7892E+02  0.4000E+02
      5.051  0.1319E+01  0.1856E+00  0.7906E+02  0.4002E+02
      5.162  0.5403E+00  0.3906E+00  0.7912E+02  0.4006E+02
      5.272  0.1453E+01  0.8745E+00  0.7928E+02  0.4016E+02
      5.383  0.1947E+01  0.9287E+00  0.7950E+02  0.4026E+02
      5.493  0.2958E+01  0.1053E+01  0.7982E+02  0.4038E+02
      5.603  0.1808E+01  0.1567E+01  0.8002E+02  0.4055E+02
      5.714  0.8030E+00  0.2483E+01  0.8011E+02  0.4083E+02
      5.824  0.2936E+00  0.3065E+01  0.8015E+02  0.4117E+02
      5.934  0.1975E+00  0.3378E+01  0.8017E+02  0.4154E+02
      6.045  0.1421E+00  0.4857E+01  0.8018E+02  0.4207E+02
      6.155  0.1068E+00  0.7292E+01  0.8019E+02  0.4288E+02
      6.266  0.5924E+00  0.9512E+01  0.8026E+02  0.4393E+02
      6.376  0.4581E+00  0.1080E+02  0.8031E+02  0.4512E+02
      6.486  0.9627E+00  0.1272E+02  0.8042E+02  0.4652E+02
      6.597  0.5592E+00  0.1506E+02  0.8048E+02  0.4819E+02
      6.707  0.2035E+00  0.1170E+02  0.8050E+02  0.4948E+02
      6.817  0.3063E+00  0.1114E+02  0.8053E+02  0.5071E+02
      6.928  0.3358E+00  0.1303E+02  0.8057E+02  0.5215E+02
      7.038  0.1183E+01  0.1616E+02  0.8070E+02  0.5393E+02
      7.149  0.1000E+01  0.1456E+02  0.8081E+02  0.5554E+02
      7.259  0.6306E+00  0.1272E+02  0.8088E+02  0.5694E+02
      7.369  0.2992E+00  0.1451E+02  0.8092E+02  0.5854E+02
      7.480  0.1205E+01  0.1636E+02  0.8105E+02  0.6035E+02
      7.590  0.1472E+01  0.2255E+02  0.8121E+02  0.6284E+02
      7.700  0.1084E+01  0.2071E+02  0.8133E+02  0.6512E+02
      7.811  0.1312E+01  0.2252E+02  0.8148E+02  0.6761E+02
      7.921  0.1207E+01  0.2045E+02  0.8161E+02  0.6987E+02
      8.032  0.2975E+01  0.1797E+02  0.8194E+02  0.7185E+02
      8.142  0.3177E+01  0.2325E+02  0.8229E+02  0.7442E+02
      8.252  0.3143E+01  0.2035E+02  0.8263E+02  0.7666E+02
      8.363  0.3440E+01  0.1217E+02  0.8301E+02  0.7800E+02
      8.473  0.3569E+01  0.7137E+01  0.8341E+02  0.7879E+02
      8.583  0.2640E+01  0.8155E+01  0.8370E+02  0.7969E+02
      8.694  0.1200E+01  0.5435E+01  0.8383E+02  0.8029E+02
      8.804  0.1143E+01  0.2106E+01  0.8396E+02  0.8053E+02
      8.915  0.6235E+00  0.1723E+01  0.8403E+02  0.8072E+02
      9.025  0.5541E+00  0.1576E+01  0.8409E+02  0.8089E+02
      9.135  0.1183E+01  0.2819E+00  0.8422E+02  0.8092E+02
      9.246  0.1738E+01  0.1134E+01  0.8441E+02  0.8105E+02
      9.356  0.1963E+01  0.1139E+01  0.8463E+02  0.8117E+02
      9.466  0.1426E+01  0.1769E+01  0.8478E+02  0.8137E+02
      9.577  0.2874E+01  0.1319E+01  0.8510E+02  0.8151E+02
      9.687  0.1830E+01  0.1043E+01  0.8530E+02  0.8163E+02
      9.798  0.1534E+01  0.1784E+01  0.8547E+02  0.8182E+02
      9.908  0.1825E+01  0.1444E+01  0.8567E+02  0.8198E+02
     10.018  0.1879E+01  0.1632E+01  0.8588E+02  0.8216E+02
     10.129  0.9198E+00  0.3132E+01  0.8598E+02  0.8251E+02
     10.239  0.1472E+00  0.3297E+01  0.8600E+02  0.8287E+02
     10.349  0.1980E-02  0.3499E+01  0.8600E+02  0.8326E+02
     10.460  0.9231E-01  0.1769E+01  0.8601E+02  0.8345E+02
     10.570  0.1736E+00  0.2657E+01  0.8603E+02  0.8375E+02
     10.681  0.4267E+00  0.2498E+01  0.8608E+02  0.8402E+02
     10.791  0.1080E+01  0.9550E+00  0.8620E+02  0.8413E+02
     10.901  0.2239E+01  0.8189E+00  0.8644E+02  0.8422E+02
     11.012  0.1095E+01  0.1574E+01  0.8656E+02  0.8439E+02
     11.122  0.1475E+01  0.1818E+01  0.8673E+02  0.8459E+02
     11.232  0.1678E+01  0.1425E+01  0.8691E+02  0.8475E+02
     11.343  0.1733E+01  0.1429E+01  0.8710E+02  0.8491E+02
     11.453  0.1761E+01  0.2402E+01  0.8730E+02  0.8517E+02
     11.564  0.2715E+01  0.2843E+01  0.8760E+02  0.8549E+02
     11.674  0.2230E+01  0.2388E+01  0.8784E+02  0.8575E+02
     11.784  0.2552E+01  0.1087E+01  0.8812E+02  0.8587E+02
     11.895  0.2078E+01  0.4818E+00  0.8835E+02  0.8592E+02
     12.005  0.2091E+01  0.1570E+01  0.8859E+02  0.8610E+02
     12.115  0.1759E+01  0.8919E+00  0.8878E+02  0.8620E+02
     12.226  0.1550E+01  0.1524E+01  0.8895E+02  0.8636E+02
     12.336  0.1452E+01  0.7991E+00  0.8911E+02  0.8645E+02
     12.447  0.1512E+01  0.8995E+00  0.8928E+02  0.8655E+02
     12.557  0.5707E+00  0.1180E+01  0.8934E+02  0.8668E+02
     12.667  0.1381E+01  0.1988E+01  0.8949E+02  0.8690E+02
     12.778  0.1712E+01  0.3085E+01  0.8968E+02  0.8724E+02
     12.888  0.1230E+01  0.2168E+01  0.8982E+02  0.8748E+02
     12.999  0.7791E+00  0.1567E+01  0.8990E+02  0.8765E+02
     13.109  0.4158E+00  0.2371E+01  0.8995E+02  0.8792E+02
     13.219  0.2616E+00  0.7801E+00  0.8998E+02  0.8800E+02
     13.330  0.1950E+00  0.1824E+01  0.9000E+02  0.8820E+02
     13.440  0.6350E-03  0.1810E+01  0.9000E+02  0.8840E+02
     13.550  0.3258E-09  0.1195E+01  0.9000E+02  0.8854E+02
     13.661  0.0000E+00  0.2012E+01  0.9000E+02  0.8876E+02
     13.771  0.0000E+00  0.2048E+01  0.9000E+02  0.8898E+02
     13.882  0.0000E+00  0.2037E+01  0.9000E+02  0.8921E+02
     13.992  0.0000E+00  0.1481E+01  0.9000E+02  0.8937E+02
     14.102  0.0000E+00  0.5333E+00  0.9000E+02  0.8943E+02
     14.213  0.0000E+00  0.5963E+00  0.9000E+02  0.8950E+02
     14.323  0.0000E+00  0.1161E+01  0.9000E+02  0.8962E+02
     14.433  0.0000E+00  0.1869E+01  0.9000E+02  0.8983E+02
     14.544  0.0000E+00  0.1110E+01  0.9000E+02  0.8995E+02
     14.654  0.0000E+00  0.6785E-01  0.9000E+02  0.8996E+02
     14.765  0.0000E+00  0.2759E+00  0.9000E+02  0.8999E+02
     14.875  0.0000E+00  0.7487E-01  0.9000E+02  0.9000E+02
     14.985  0.0000E+00  0.1315E-02  0.9000E+02  0.9000E+02
     15.096  0.0000E+00  0.9075E-08  0.9000E+02  0.9000E+02
     15.206  0.0000E+00  0.0000E+00  0.9000E+02  0.9000E+02
     15.316  0.0000E+00  0.0000E+00  0.9000E+02  0.9000E+02
     15.427  0.0000E+00  0.0000E+00  0.9000E+02  0.9000E+02
     15.537  0.0000E+00  0.0000E+00  0.9000E+02  0.9000E+02
     15.648  0.0000E+00  0.0000E+00  0.9000E+02  0.9000E+02
     15.758  0.0000E+00  0.0000E+00  0.9000E+02  0.9000E+02
     15.868  0.0000E+00  0.0000E+00  0.9000E+02  0.9000E+02
     15.979  0.0000E+00  0.0000E+00  0.9000E+02  0.9000E+02
     16.089  0.0000E+00  0.0000E+00  0.9000E+02  0.9000E+02
     16.199  0.0000E+00  0.0000E+00  0.9000E+02  0.9000E+02
     16.310  0.0000E+00  0.0000E+00  0.9000E+02  0.9000E+02
