   18   18    1    2
  0.1192529E+02  0.3716900E-09  0.5407759E-09  0.1067931E-08  0.5000000E-15
  1.000000000000000E-004
  CAR 
 unknown system                          
    116     40     90
 
  0.0000000E+00  0.0000000E+00  0.0000000E+00  0.6172840E-02
    1      -15.298120    -15.156640   1.000000   1.000000
    2      -15.115307    -14.964258   1.000000   1.000000
    3      -14.901307    -14.757565   1.000000   1.000000
    4      -14.734759    -14.566874   1.000000   1.000000
    5      -14.052303    -13.892372   1.000000   1.000000
    6      -14.045668    -13.878026   1.000000   1.000000
    7      -13.965143    -13.788899   1.000000   1.000000
    8      -13.956436    -13.775535   1.000000   1.000000
    9      -13.587827    -13.505727   1.000000   1.000000
   10      -13.585035    -13.503988   1.000000   1.000000
   11       -2.766180     -1.525976   1.000000   1.000000
   12       -2.711667     -1.277936   1.000000   1.000000
   13       -2.567290     -1.276080   1.000000   1.000000
   14       -2.537249     -1.219116   1.000000   1.000000
   15       -2.489239     -1.198782   1.000000   1.000000
   16       -2.471257     -1.182116   1.000000   1.000000
   17       -2.376344     -1.134006   1.000000   1.000000
   18       -2.234573     -1.116537   1.000000   1.000000
   19       -2.203003     -0.841820   1.000000   1.000000
   20       -2.156842     -0.722710   1.000000   1.000000
   21       -2.086458     -0.700291   1.000000   1.000000
   22       -2.022130     -0.597029   1.000000   1.000000
   23       -1.976530     -0.291427   1.000000   1.000000
   24       -1.828494     -0.191286   1.000000   1.000000
   25       -1.783138     -0.087479   1.000000   1.000000
   26       -1.684112      0.162279   1.000000   1.000000
   27       -1.680279      0.248867   1.000000   1.000000
   28       -1.640274      0.420824   1.000000   1.000000
   29       -1.216111      0.426947   1.000000   1.000000
   30       -1.212503      0.578598   1.000000   1.000000
   31       -1.168077      0.639786   1.000000   1.000000
   32       -1.088336      0.715826   1.000000   1.000000
   33       -0.711747      0.808437   1.000000   1.000000
   34       -0.687649      1.014856   1.000000   1.000000
   35       -0.641025      1.346478   1.000000   1.000000
   36       -0.544275      1.369149   1.000000   1.000000
   37       -0.518574      1.423155   1.000000   1.000000
   38       -0.442391      1.527655   1.000000   1.000000
   39       -0.212544      1.918370   1.000000   1.000000
   40       -0.155861      1.946191   1.000000   1.000000
   41       -0.148642      5.363565   1.000000   0.000000
   42       -0.144459      5.718348   1.000000   0.000000
   43       -0.045441      5.794407   1.000000   0.000000
   44        0.051576      6.025984   1.000000   0.000000
   45        0.100095      6.303994   1.000000   0.000000
   46        0.100229      6.319667   1.000000   0.000000
   47        0.149830      6.437843   1.000000   0.000000
   48        0.170524      6.487745   1.000000   0.000000
   49        0.214459      6.705281   1.000000   0.000000
   50        0.251110      6.710580   1.000000   0.000000
   51        0.440393      6.740063   1.000000   0.000000
   52        0.497344      6.819141   1.000000   0.000000
   53        0.557960      6.858971   1.000000   0.000000
   54        0.864523      6.903743   1.000000   0.000000
   55        0.884427      6.954553   1.000000   0.000000
   56        0.911858      6.962467   1.000000   0.000000
   57        1.137585      7.016864   1.000000   0.000000
   58        1.184583      7.102703   1.000000   0.000000
   59        1.219928      7.177980   1.000000   0.000000
   60        1.398878      7.225452   1.000000   0.000000
   61        1.497457      7.278155   1.000000   0.000000
   62        1.526937      7.447997   1.000000   0.000000
   63        1.657584      7.488410   1.000000   0.000000
   64        1.938546      7.576394   1.000000   0.000000
   65        2.214595      7.576909   1.000000   0.000000
   66        2.222188      7.637245   1.000000   0.000000
   67        2.413150      7.661553   1.000000   0.000000
   68        2.481656      7.717848   1.000000   0.000000
   69        2.676215      7.721037   1.000000   0.000000
   70        2.715080      7.732716   1.000000   0.000000
   71        2.767007      7.860121   1.000000   0.000000
   72        2.815234      7.884299   1.000000   0.000000
   73        3.166904      8.056832   1.000000   0.000000
   74        3.222063      8.152705   1.000000   0.000000
   75        3.238478      8.204179   0.999997   0.000000
   76        3.332081      8.241201   0.971671   0.000000
   77        3.430785      8.312983   0.187203   0.000000
   78        3.464358      8.313316   0.033051   0.000000
   79        4.208669      8.457732   0.000000   0.000000
   80        4.213299      8.645567   0.000000   0.000000
   81        4.881730      8.660681   0.000000   0.000000
   82        6.933802      8.679004   0.000000   0.000000
   83        7.304951      9.039438   0.000000   0.000000
   84        9.067960     10.966339   0.000000   0.000000
   85        9.200116     11.138032   0.000000   0.000000
   86        9.494184     11.532996   0.000000   0.000000
   87       11.013170     12.385388   0.000000   0.000000
   88       11.691181     13.091971   0.000000   0.000000
   89       12.185599     13.796526   0.000000   0.000000
   90       12.904014     14.804676   0.000000   0.000000
 
  0.1111111E+00  0.9726327E-32  0.0000000E+00  0.1234568E-01
    1      -15.240772    -15.102363   1.000000   1.000000
    2      -15.063936    -14.916682   1.000000   1.000000
    3      -14.852974    -14.712518   1.000000   1.000000
    4      -14.692777    -14.529966   1.000000   1.000000
    5      -14.054677    -13.896057   1.000000   1.000000
    6      -14.053591    -13.890082   1.000000   1.000000
    7      -13.959201    -13.783103   1.000000   1.000000
    8      -13.955427    -13.776463   1.000000   1.000000
    9      -13.589648    -13.506321   1.000000   1.000000
   10      -13.588789    -13.506075   1.000000   1.000000
   11       -2.860942     -1.487531   1.000000   1.000000
   12       -2.728291     -1.476266   1.000000   1.000000
   13       -2.705475     -1.377013   1.000000   1.000000
   14       -2.579595     -1.321944   1.000000   1.000000
   15       -2.567626     -1.302559   1.000000   1.000000
   16       -2.544827     -1.184399   1.000000   1.000000
   17       -2.389666     -1.136780   1.000000   1.000000
   18       -2.362748     -0.997553   1.000000   1.000000
   19       -2.292211     -0.919753   1.000000   1.000000
   20       -2.233564     -0.843998   1.000000   1.000000
   21       -2.152641     -0.635340   1.000000   1.000000
   22       -2.005099     -0.557853   1.000000   1.000000
   23       -1.862872     -0.498009   1.000000   1.000000
   24       -1.857504     -0.273042   1.000000   1.000000
   25       -1.777170     -0.007360   1.000000   1.000000
   26       -1.693803      0.075257   1.000000   1.000000
   27       -1.634470      0.080036   1.000000   1.000000
   28       -1.377871      0.236531   1.000000   1.000000
   29       -1.266049      0.488657   1.000000   1.000000
   30       -1.156307      0.584948   1.000000   1.000000
   31       -1.037793      0.611792   1.000000   1.000000
   32       -0.984045      0.759745   1.000000   1.000000
   33       -0.862540      0.892930   1.000000   1.000000
   34       -0.797769      1.038472   1.000000   1.000000
   35       -0.675928      1.333219   1.000000   1.000000
   36       -0.544398      1.420158   1.000000   1.000000
   37       -0.470789      1.482636   1.000000   1.000000
   38       -0.454721      1.539295   1.000000   1.000000
   39       -0.236836      1.875567   1.000000   1.000000
   40       -0.173735      1.919493   1.000000   1.000000
   41       -0.122102      5.500775   1.000000   0.000000
   42       -0.100253      5.756167   1.000000   0.000000
   43       -0.052825      5.874122   1.000000   0.000000
   44        0.042264      6.041964   1.000000   0.000000
   45        0.085932      6.239972   1.000000   0.000000
   46        0.126901      6.297517   1.000000   0.000000
   47        0.215724      6.384202   1.000000   0.000000
   48        0.231823      6.440969   1.000000   0.000000
   49        0.286791      6.574377   1.000000   0.000000
   50        0.341830      6.576173   1.000000   0.000000
   51        0.418997      6.741854   1.000000   0.000000
   52        0.550939      6.756889   1.000000   0.000000
   53        0.593061      6.846975   1.000000   0.000000
   54        0.831070      6.888060   1.000000   0.000000
   55        0.890388      6.930687   1.000000   0.000000
   56        0.895266      7.041552   1.000000   0.000000
   57        0.937618      7.048180   1.000000   0.000000
   58        0.984911      7.155845   1.000000   0.000000
   59        1.257210      7.284882   1.000000   0.000000
   60        1.277661      7.313953   1.000000   0.000000
   61        1.316334      7.408734   1.000000   0.000000
   62        1.418399      7.413941   1.000000   0.000000
   63        1.516656      7.462918   1.000000   0.000000
   64        1.762193      7.549987   1.000000   0.000000
   65        2.071732      7.640447   1.000000   0.000000
   66        2.092695      7.691044   1.000000   0.000000
   67        2.125192      7.732120   1.000000   0.000000
   68        2.268635      7.749347   1.000000   0.000000
   69        2.654372      7.780671   1.000000   0.000000
   70        2.725306      7.817739   1.000000   0.000000
   71        2.793283      7.903689   1.000000   0.000000
   72        2.803905      7.993500   1.000000   0.000000
   73        3.284472      8.039794   0.999416   0.000000
   74        3.293081      8.134376   0.998710   0.000000
   75        3.322284      8.210589   0.985528   0.000000
   76        3.331414      8.246768   0.972776   0.000000
   77        3.386601      8.258719   0.635500   0.000000
   78        3.699326      8.439035   0.000000   0.000000
   79        4.495265      8.453209   0.000000   0.000000
   80        4.537843      8.555011   0.000000   0.000000
   81        5.347540      8.568859   0.000000   0.000000
   82        7.128633      8.882478   0.000000   0.000000
   83        7.473541      9.208711   0.000000   0.000000
   84        8.942722     10.964024   0.000000   0.000000
   85        9.172415     11.070187   0.000000   0.000000
   86        9.602258     11.657876   0.000000   0.000000
   87       11.120295     12.448915   0.000000   0.000000
   88       11.682528     13.123193   0.000000   0.000000
   89       11.919306     13.384924   0.000000   0.000000
   90       13.123311     14.336542   0.000000   0.000000
 
  0.2222222E+00  0.1530166E-31  0.0000000E+00  0.1234568E-01
    1      -15.081363    -14.950921   1.000000   1.000000
    2      -14.924394    -14.787472   1.000000   1.000000
    3      -14.721576    -14.589488   1.000000   1.000000
    4      -14.582327    -14.433223   1.000000   1.000000
    5      -14.089124    -13.933807   1.000000   1.000000
    6      -14.064208    -13.913226   1.000000   1.000000
    7      -13.959029    -13.785903   1.000000   1.000000
    8      -13.945927    -13.769716   1.000000   1.000000
    9      -13.600736    -13.512555   1.000000   1.000000
   10      -13.595498    -13.507742   1.000000   1.000000
   11       -3.061697     -1.853361   1.000000   1.000000
   12       -2.953326     -1.618238   1.000000   1.000000
   13       -2.878049     -1.615035   1.000000   1.000000
   14       -2.715226     -1.614346   1.000000   1.000000
   15       -2.668715     -1.306403   1.000000   1.000000
   16       -2.613537     -1.223072   1.000000   1.000000
   17       -2.534103     -1.084003   1.000000   1.000000
   18       -2.486301     -1.024141   1.000000   1.000000
   19       -2.441789     -0.907628   1.000000   1.000000
   20       -2.315015     -0.899336   1.000000   1.000000
   21       -2.215638     -0.892850   1.000000   1.000000
   22       -2.084301     -0.689319   1.000000   1.000000
   23       -1.851035     -0.471936   1.000000   1.000000
   24       -1.797742     -0.328835   1.000000   1.000000
   25       -1.674575     -0.318413   1.000000   1.000000
   26       -1.622398      0.111660   1.000000   1.000000
   27       -1.449849      0.126482   1.000000   1.000000
   28       -1.389369      0.147463   1.000000   1.000000
   29       -1.231430      0.228431   1.000000   1.000000
   30       -1.086625      0.377625   1.000000   1.000000
   31       -1.064040      0.565913   1.000000   1.000000
   32       -0.938481      0.702846   1.000000   1.000000
   33       -0.901205      0.927925   1.000000   1.000000
   34       -0.766813      1.000417   1.000000   1.000000
   35       -0.563006      1.224287   1.000000   1.000000
   36       -0.556517      1.466660   1.000000   1.000000
   37       -0.549432      1.761787   1.000000   1.000000
   38       -0.396337      1.769441   1.000000   1.000000
   39       -0.357717      1.786473   1.000000   1.000000
   40       -0.145330      1.835852   1.000000   1.000000
   41       -0.125390      5.396209   1.000000   0.000000
   42       -0.122005      5.833398   1.000000   0.000000
   43       -0.046474      6.055153   1.000000   0.000000
   44        0.038260      6.059262   1.000000   0.000000
   45        0.078760      6.198617   1.000000   0.000000
   46        0.104084      6.269920   1.000000   0.000000
   47        0.111622      6.345045   1.000000   0.000000
   48        0.168622      6.476674   1.000000   0.000000
   49        0.194206      6.535589   1.000000   0.000000
   50        0.282241      6.612875   1.000000   0.000000
   51        0.365201      6.651261   1.000000   0.000000
   52        0.462617      6.825259   1.000000   0.000000
   53        0.548411      6.947570   1.000000   0.000000
   54        0.641483      6.973392   1.000000   0.000000
   55        0.818972      7.061162   1.000000   0.000000
   56        0.828449      7.133846   1.000000   0.000000
   57        0.908072      7.200429   1.000000   0.000000
   58        0.939027      7.277484   1.000000   0.000000
   59        0.946699      7.311729   1.000000   0.000000
   60        1.289577      7.316922   1.000000   0.000000
   61        1.342083      7.322917   1.000000   0.000000
   62        1.482046      7.405512   1.000000   0.000000
   63        1.562432      7.555997   1.000000   0.000000
   64        1.605387      7.590580   1.000000   0.000000
   65        1.763381      7.661053   1.000000   0.000000
   66        1.773830      7.675398   1.000000   0.000000
   67        2.007662      7.756452   1.000000   0.000000
   68        2.150866      7.836559   1.000000   0.000000
   69        2.485538      7.870970   1.000000   0.000000
   70        2.712343      7.930024   1.000000   0.000000
   71        2.788354      7.959120   1.000000   0.000000
   72        2.806848      8.005170   1.000000   0.000000
   73        3.109986      8.063517   1.000000   0.000000
   74        3.116603      8.110656   1.000000   0.000000
   75        3.258122      8.119247   0.999968   0.000000
   76        3.308510      8.304135   0.995044   0.000000
   77        3.715360      8.353076   0.000000   0.000000
   78        4.173905      8.360620   0.000000   0.000000
   79        4.989332      8.374441   0.000000   0.000000
   80        5.098920      8.524737   0.000000   0.000000
   81        6.293378      8.805109   0.000000   0.000000
   82        7.594591      9.327490   0.000000   0.000000
   83        7.922101      9.686393   0.000000   0.000000
   84        8.572661     10.815525   0.000000   0.000000
   85        9.144676     11.002301   0.000000   0.000000
   86        9.887552     11.988591   0.000000   0.000000
   87       11.697806     13.034219   0.000000   0.000000
   88       11.928340     13.531961   0.000000   0.000000
   89       12.230972     13.903744   0.000000   0.000000
   90       12.766065     14.369764   0.000000   0.000000
 
  0.3333333E+00  0.4355793E-31  0.0000000E+00  0.1234568E-01
    1      -14.858042    -14.737032   1.000000   1.000000
    2      -14.740813    -14.617619   1.000000   1.000000
    3      -14.544304    -14.422000   1.000000   1.000000
    4      -14.447331    -14.316159   1.000000   1.000000
    5      -14.165905    -14.024201   1.000000   1.000000
    6      -14.100744    -13.957882   1.000000   1.000000
    7      -13.981336    -13.816975   1.000000   1.000000
    8      -13.936264    -13.758409   1.000000   1.000000
    9      -13.618396    -13.520466   1.000000   1.000000
   10      -13.604738    -13.509184   1.000000   1.000000
   11       -3.180440     -2.156471   1.000000   1.000000
   12       -3.093194     -1.970741   1.000000   1.000000
   13       -2.989126     -1.882012   1.000000   1.000000
   14       -2.919706     -1.857912   1.000000   1.000000
   15       -2.842212     -1.385595   1.000000   1.000000
   16       -2.840759     -1.342460   1.000000   1.000000
   17       -2.757285     -1.246234   1.000000   1.000000
   18       -2.388637     -1.089091   1.000000   1.000000
   19       -2.350151     -1.019277   1.000000   1.000000
   20       -2.328644     -0.877028   1.000000   1.000000
   21       -2.321427     -0.803680   1.000000   1.000000
   22       -2.236607     -0.587632   1.000000   1.000000
   23       -1.863850     -0.507567   1.000000   1.000000
   24       -1.838565     -0.397095   1.000000   1.000000
   25       -1.659773     -0.255248   1.000000   1.000000
   26       -1.539808     -0.206180   1.000000   1.000000
   27       -1.522628     -0.048463   1.000000   1.000000
   28       -1.378618      0.199592   1.000000   1.000000
   29       -1.340457      0.217668   1.000000   1.000000
   30       -1.254521      0.234257   1.000000   1.000000
   31       -1.057759      0.424541   1.000000   1.000000
   32       -1.051804      0.489963   1.000000   1.000000
   33       -0.915455      0.813816   1.000000   1.000000
   34       -0.848529      0.997970   1.000000   1.000000
   35       -0.596440      1.212139   1.000000   1.000000
   36       -0.506950      1.428341   1.000000   1.000000
   37       -0.504285      1.700875   1.000000   1.000000
   38       -0.444165      1.701413   1.000000   1.000000
   39       -0.292046      1.988379   1.000000   1.000000
   40       -0.258130      2.042588   1.000000   1.000000
   41       -0.198995      5.134759   1.000000   0.000000
   42       -0.162954      5.801438   1.000000   0.000000
   43       -0.162353      6.055606   1.000000   0.000000
   44       -0.064564      6.208811   1.000000   0.000000
   45       -0.046375      6.229159   1.000000   0.000000
   46        0.014095      6.262703   1.000000   0.000000
   47        0.028660      6.508897   1.000000   0.000000
   48        0.136815      6.546191   1.000000   0.000000
   49        0.216790      6.679139   1.000000   0.000000
   50        0.218546      6.790670   1.000000   0.000000
   51        0.237414      6.809629   1.000000   0.000000
   52        0.410037      6.934201   1.000000   0.000000
   53        0.531525      6.987939   1.000000   0.000000
   54        0.559046      6.999690   1.000000   0.000000
   55        0.797902      7.031183   1.000000   0.000000
   56        0.864525      7.139328   1.000000   0.000000
   57        0.996541      7.301784   1.000000   0.000000
   58        1.003770      7.373016   1.000000   0.000000
   59        1.140535      7.397271   1.000000   0.000000
   60        1.224504      7.403763   1.000000   0.000000
   61        1.337928      7.415672   1.000000   0.000000
   62        1.415017      7.492033   1.000000   0.000000
   63        1.542877      7.515969   1.000000   0.000000
   64        1.613988      7.548839   1.000000   0.000000
   65        1.731046      7.650622   1.000000   0.000000
   66        1.926280      7.742707   1.000000   0.000000
   67        2.103309      7.794628   1.000000   0.000000
   68        2.146632      7.817301   1.000000   0.000000
   69        2.317854      7.874182   1.000000   0.000000
   70        2.515261      7.905815   1.000000   0.000000
   71        2.689799      7.935648   1.000000   0.000000
   72        2.744101      8.036265   1.000000   0.000000
   73        3.002164      8.044970   1.000000   0.000000
   74        3.047645      8.082320   1.000000   0.000000
   75        3.216116      8.118045   1.000000   0.000000
   76        3.255537      8.189847   0.999977   0.000000
   77        3.948034      8.207006   0.000000   0.000000
   78        4.354844      8.224487   0.000000   0.000000
   79        5.351861      8.501215   0.000000   0.000000
   80        5.503866      8.714438   0.000000   0.000000
   81        7.351403      9.359749   0.000000   0.000000
   82        8.111903      9.842128   0.000000   0.000000
   83        8.121554     10.315082   0.000000   0.000000
   84        8.435799     10.504365   0.000000   0.000000
   85        9.254972     11.197392   0.000000   0.000000
   86       10.133291     12.171759   0.000000   0.000000
   87       11.402219     13.073323   0.000000   0.000000
   88       11.833584     13.278487   0.000000   0.000000
   89       11.993969     13.769321   0.000000   0.000000
   90       12.501274     14.283679   0.000000   0.000000
 
  0.4444444E+00  0.3060333E-31  0.0000000E+00  0.1234568E-01
    1      -14.644233    -14.530194   1.000000   1.000000
    2      -14.594335    -14.482953   1.000000   1.000000
    3      -14.379738    -14.266698   1.000000   1.000000
    4      -14.351085    -14.234257   1.000000   1.000000
    5      -14.281930    -14.150467   1.000000   1.000000
    6      -14.171501    -14.031650   1.000000   1.000000
    7      -14.019164    -13.860890   1.000000   1.000000
    8      -13.936015    -13.754964   1.000000   1.000000
    9      -13.632320    -13.525188   1.000000   1.000000
   10      -13.612175    -13.509785   1.000000   1.000000
   11       -3.182719     -2.320842   1.000000   1.000000
   12       -3.111643     -2.180783   1.000000   1.000000
   13       -3.021965     -2.031591   1.000000   1.000000
   14       -2.981553     -2.004919   1.000000   1.000000
   15       -2.966719     -1.612956   1.000000   1.000000
   16       -2.935833     -1.463299   1.000000   1.000000
   17       -2.935150     -1.437411   1.000000   1.000000
   18       -2.599547     -1.025943   1.000000   1.000000
   19       -2.358186     -0.958129   1.000000   1.000000
   20       -2.289447     -0.917234   1.000000   1.000000
   21       -2.239347     -0.729408   1.000000   1.000000
   22       -2.229836     -0.525961   1.000000   1.000000
   23       -1.960572     -0.492588   1.000000   1.000000
   24       -1.904200     -0.325691   1.000000   1.000000
   25       -1.831204     -0.289278   1.000000   1.000000
   26       -1.611391     -0.186996   1.000000   1.000000
   27       -1.609672     -0.105583   1.000000   1.000000
   28       -1.507395     -0.061477   1.000000   1.000000
   29       -1.475410      0.205442   1.000000   1.000000
   30       -1.372533      0.315739   1.000000   1.000000
   31       -1.249615      0.324261   1.000000   1.000000
   32       -0.919879      0.365159   1.000000   1.000000
   33       -0.897775      0.561986   1.000000   1.000000
   34       -0.844687      1.014283   1.000000   1.000000
   35       -0.699688      1.267221   1.000000   1.000000
   36       -0.546292      1.444953   1.000000   1.000000
   37       -0.507369      1.583382   1.000000   1.000000
   38       -0.371234      1.590661   1.000000   1.000000
   39       -0.352369      2.102301   1.000000   1.000000
   40       -0.241196      2.194816   1.000000   1.000000
   41       -0.215881      4.987179   1.000000   0.000000
   42       -0.125366      5.715334   1.000000   0.000000
   43       -0.111689      5.975041   1.000000   0.000000
   44       -0.022215      6.398713   1.000000   0.000000
   45       -0.017184      6.446912   1.000000   0.000000
   46        0.010348      6.451640   1.000000   0.000000
   47        0.102061      6.566317   1.000000   0.000000
   48        0.126182      6.638509   1.000000   0.000000
   49        0.171363      6.699585   1.000000   0.000000
   50        0.212853      6.799426   1.000000   0.000000
   51        0.309608      6.826146   1.000000   0.000000
   52        0.326807      6.892763   1.000000   0.000000
   53        0.442476      6.971908   1.000000   0.000000
   54        0.633036      7.020360   1.000000   0.000000
   55        0.700059      7.039262   1.000000   0.000000
   56        0.823502      7.053249   1.000000   0.000000
   57        0.828724      7.318229   1.000000   0.000000
   58        0.965602      7.474076   1.000000   0.000000
   59        1.078406      7.480281   1.000000   0.000000
   60        1.161767      7.490285   1.000000   0.000000
   61        1.358215      7.503047   1.000000   0.000000
   62        1.491750      7.527546   1.000000   0.000000
   63        1.585316      7.541766   1.000000   0.000000
   64        1.837543      7.651647   1.000000   0.000000
   65        2.064480      7.667198   1.000000   0.000000
   66        2.083239      7.713682   1.000000   0.000000
   67        2.118024      7.725927   1.000000   0.000000
   68        2.240933      7.761422   1.000000   0.000000
   69        2.267454      7.804856   1.000000   0.000000
   70        2.295830      7.923799   1.000000   0.000000
   71        2.499090      7.966219   1.000000   0.000000
   72        2.505115      7.979869   1.000000   0.000000
   73        3.035156      8.038861   1.000000   0.000000
   74        3.088140      8.092165   1.000000   0.000000
   75        3.188385      8.095375   1.000000   0.000000
   76        3.236220      8.118149   0.999998   0.000000
   77        4.051734      8.155277   0.000000   0.000000
   78        4.349722      8.318402   0.000000   0.000000
   79        5.522606      8.532879   0.000000   0.000000
   80        5.691139      8.743206   0.000000   0.000000
   81        7.823360     10.162740   0.000000   0.000000
   82        8.322953     10.316006   0.000000   0.000000
   83        8.474658     10.347029   0.000000   0.000000
   84        8.701503     10.723728   0.000000   0.000000
   85        9.530807     11.373391   0.000000   0.000000
   86        9.833613     11.604621   0.000000   0.000000
   87       11.060448     12.010665   0.000000   0.000000
   88       11.506906     13.074850   0.000000   0.000000
   89       11.928138     13.486885   0.000000   0.000000
   90       12.480933     13.715118   0.000000   0.000000
 
  0.0000000E+00  0.1666667E+00  0.0000000E+00  0.1234568E-01
    1      -15.258465    -15.117334   1.000000   1.000000
    2      -15.091273    -14.941158   1.000000   1.000000
    3      -14.896224    -14.752186   1.000000   1.000000
    4      -14.760043    -14.596872   1.000000   1.000000
    5      -14.086927    -13.931216   1.000000   1.000000
    6      -14.031090    -13.867499   1.000000   1.000000
    7      -14.020834    -13.854866   1.000000   1.000000
    8      -13.948196    -13.772130   1.000000   1.000000
    9      -13.575330    -13.482788   1.000000   1.000000
   10      -13.570133    -13.474607   1.000000   1.000000
   11       -2.807372     -1.588936   1.000000   1.000000
   12       -2.636092     -1.478803   1.000000   1.000000
   13       -2.572873     -1.237180   1.000000   1.000000
   14       -2.554924     -1.235409   1.000000   1.000000
   15       -2.505279     -1.174658   1.000000   1.000000
   16       -2.495731     -1.115494   1.000000   1.000000
   17       -2.379443     -1.076276   1.000000   1.000000
   18       -2.273031     -1.058579   1.000000   1.000000
   19       -2.262988     -0.862032   1.000000   1.000000
   20       -2.155949     -0.766600   1.000000   1.000000
   21       -2.111881     -0.700939   1.000000   1.000000
   22       -1.980408     -0.560597   1.000000   1.000000
   23       -1.915150     -0.352369   1.000000   1.000000
   24       -1.901328     -0.155142   1.000000   1.000000
   25       -1.783659     -0.089989   1.000000   1.000000
   26       -1.688186      0.064987   1.000000   1.000000
   27       -1.680055      0.283007   1.000000   1.000000
   28       -1.574789      0.432291   1.000000   1.000000
   29       -1.426189      0.442088   1.000000   1.000000
   30       -1.280849      0.569276   1.000000   1.000000
   31       -1.222137      0.706611   1.000000   1.000000
   32       -1.099151      0.729983   1.000000   1.000000
   33       -0.821484      0.776316   1.000000   1.000000
   34       -0.745597      0.967120   1.000000   1.000000
   35       -0.674038      1.329297   1.000000   1.000000
   36       -0.547145      1.433119   1.000000   1.000000
   37       -0.506045      1.464231   1.000000   1.000000
   38       -0.447202      1.512639   1.000000   1.000000
   39       -0.360164      1.777098   1.000000   1.000000
   40       -0.304668      1.876918   1.000000   1.000000
   41       -0.108220      5.618278   1.000000   0.000000
   42       -0.050951      5.865607   1.000000   0.000000
   43        0.000472      5.866374   1.000000   0.000000
   44        0.050440      6.066184   1.000000   0.000000
   45        0.068643      6.357487   1.000000   0.000000
   46        0.118772      6.359161   1.000000   0.000000
   47        0.134987      6.460946   1.000000   0.000000
   48        0.135556      6.532519   1.000000   0.000000
   49        0.291947      6.603431   1.000000   0.000000
   50        0.389400      6.755950   1.000000   0.000000
   51        0.453399      6.785218   1.000000   0.000000
   52        0.554580      6.865478   1.000000   0.000000
   53        0.576397      6.910891   1.000000   0.000000
   54        0.627422      6.952290   1.000000   0.000000
   55        0.966141      6.989683   1.000000   0.000000
   56        1.124293      7.002702   1.000000   0.000000
   57        1.239169      7.010739   1.000000   0.000000