       N       E                     dE             d eps       ncg     rms          ort
DAV:   1     0.211930729108E+04    0.21193E+04   -0.48423E+04  3600   0.164E+03
DAV:   2     0.579815179146E+03   -0.15395E+04   -0.13501E+04  3600   0.471E+02
DAV:   3     0.181700408074E+02   -0.56165E+03   -0.51273E+03  3600   0.283E+02
DAV:   4    -0.126965120156E+03   -0.14514E+03   -0.13388E+03  3600   0.147E+02
DAV:   5    -0.154546381289E+03   -0.27581E+02   -0.26799E+02  3600   0.660E+01
SDA:   6    -0.559523573218E+02    0.98594E+02   -0.18915E+03  3600   0.473E+03 0.000E+00
DMP:   7    -0.101355673264E+03   -0.45403E+02   -0.27035E+02  3600   0.168E+03-0.264E+03
DMP:   8    -0.119851032203E+03   -0.18495E+02   -0.32873E+02  3600   0.720E+02 0.267E+02
DMP:   9    -0.129351310844E+03   -0.95003E+01   -0.62623E+01  3600   0.284E+02-0.335E+02
DMP:  10    -0.133386074139E+03   -0.40348E+01   -0.34693E+01  3600   0.698E+01 0.444E+01
DMP:  11    -0.134250800366E+03   -0.86473E+00   -0.14631E+01  3600   0.543E+01-0.463E+01
DMP:  12    -0.135073701803E+03   -0.82290E+00   -0.35342E+00  3600   0.708E+00 0.460E+00
DMP:  13    -0.135133362967E+03   -0.59661E-01   -0.24468E+00  3600   0.836E+00-0.587E+00
DMP:  14    -0.135258423798E+03   -0.12506E+00   -0.38475E-01  3600   0.916E-01 0.119E-01
DMP:  15    -0.135265930881E+03   -0.75071E-02   -0.39031E-01  3600   0.120E+00-0.584E-01
DMP:  16    -0.135285239521E+03   -0.19309E-01   -0.61883E-02  3600   0.158E-01-0.880E-03
DMP:  17    -0.135287502563E+03   -0.22630E-02   -0.60829E-02  3600   0.168E-01-0.416E-02
DMP:  18    -0.135290631087E+03   -0.31285E-02   -0.11011E-02  3600   0.260E-02 0.409E-03
DMP:  19    -0.135291112565E+03   -0.48148E-03   -0.81577E-03  3600   0.217E-02-0.343E-03
DMP:  20    -0.135291536978E+03   -0.42441E-03   -0.21305E-03  3600   0.497E-03 0.936E-04
DMP:  21    -0.135291642757E+03   -0.10578E-03   -0.11418E-03  3600   0.287E-03-0.380E-05
DMP:  22    -0.135291704300E+03   -0.61543E-04   -0.39936E-04  3600   0.927E-04 0.188E-04
DMP:  23    -0.135291727723E+03   -0.23423E-04   -0.19303E-04  3600   0.413E-04 0.182E-04
DMP:  24    -0.135291738921E+03   -0.11198E-04   -0.87630E-05  3600   0.182E-04 0.980E-05
DMP:  25    -0.135291745007E+03   -0.60860E-05   -0.48065E-05  3600   0.864E-05 0.883E-05
   1 F= -.13529175E+03 E0= -.13529047E+03  d E =-.254200E-02  mag=    36.0000
