 vasp.6.1.0 28Jan20 (build Oct 05 2020 22:43:53) complex                        
  
 executed on             LinuxIFC date 2022.09.16  19:35:39
 running on  120 total cores
 distrk:  each k-point on   60 cores,    2 groups
 distr:  one band on NCORE=   4 cores,   15 groups


--------------------------------------------------------------------------------------------------------


 INCAR:
 POTCAR:    PAW_PBE Mn 06Sep2000                  
 POTCAR:    PAW_PBE O 08Apr2002                   
 -----------------------------------------------------------------------------
|                                                                             |
|           W    W    AA    RRRRR   N    N  II  N    N   GGGG   !!!           |
|           W    W   A  A   R    R  NN   N  II  NN   N  G    G  !!!           |
|           W    W  A    A  R    R  N N  N  II  N N  N  G       !!!           |
|           W WW W  AAAAAA  RRRRR   N  N N  II  N  N N  G  GGG   !            |
|           WW  WW  A    A  R   R   N   NN  II  N   NN  G    G                |
|           W    W  A    A  R    R  N    N  II  N    N   GGGG   !!!           |
|                                                                             |
|     For optimal performance we recommend to set                             |
|       NCORE = 4 - approx SQRT(number of cores).                             |
|     NCORE specifies how many cores store one orbital (NPAR=cpu/NCORE).      |
|     This setting can greatly improve the performance of VASP for DFT.       |
|     The default, NCORE=1 might be grossly inefficient on modern             |
|     multi-core architectures or massively parallel machines. Do your        |
|     own testing!!!!                                                         |
|     Unfortunately you need to use the default for GW and RPA                |
|     calculations (for HF NCORE is supported but not extensively tested      |
|     yet).                                                                   |
|                                                                             |
 -----------------------------------------------------------------------------

 POTCAR:    PAW_PBE Mn 06Sep2000                  
   SHA256 =  791c87526310ff945dc83749a51ee60ee299d345ff72743aeb14609b9ed68bfc Mn/POTCAR             
   COPYR  = (c) Copyright 06Sep2000 Georg Kresse                                                    
   COPYR  = This file is part of the software VASP. Any use, copying, and all other rights are regul
   COPYR  = If you do not have a valid VASP license, you may not use, copy or distribute this file. 
   VRHFIN =Mn: d6 s1                                                                                
   LEXCH  = PE                                                                                      
   EATOM  =   416.7541 eV,   30.6306 Ry                                                             
                                                                                                    
   TITEL  = PAW_PBE Mn 06Sep2000                                                                    
   LULTRA =        F    use ultrasoft PP ?                                                          
   IUNSCR =        1    unscreen: 0-lin 1-nonlin 2-no                                               
   RPACOR =    2.000    partial core radius                                                         
   POMASS =   54.938; ZVAL   =    7.000    mass and valenz                                          
   RCORE  =    2.300    outmost cutoff radius                                                       
   RWIGS  =    2.500; RWIGS  =    1.323    wigner-seitz radius (au A)                               
   ENMAX  =  269.864; ENMIN  =  202.398 eV                                                          
   RCLOC  =    1.725    cutoff for local pot                                                        
   LCOR   =        T    correct aug charges                                                         
   LPAW   =        T    paw PP                                                                      
   EAUG   =  500.711                                                                                
   DEXC   =    0.000                                                                                
   RMAX   =    2.343    core radius for proj-oper                                                   
   RAUG   =    1.300    factor for augmentation sphere                                              
   RDEP   =    2.338    radius for radial grids                                                     
   RDEPT  =    1.911    core radius for aug-charge                                                  
                                                                                                    
   Atomic configuration                                                                             
    9 entries                                                                                       
     n  l   j            E        occ.                                                              
     1  0  0.50     -6424.8288   2.0000                                                             
     2  0  0.50      -739.1154   2.0000                                                             
     2  1  1.50      -625.3949   6.0000                                                             
     3  0  0.50       -81.6100   2.0000                                                             
     3  1  1.50       -50.4667   6.0000                                                             
     3  2  2.50        -3.3745   6.0000                                                             
     4  0  0.50        -4.1331   1.0000                                                             
     4  1  0.50        -4.0817   0.0000                                                             
     4  3  2.50        -1.3606   0.0000                                                             
   Description                                                                                      
     l       E           TYP  RCUT    TYP  RCUT                                                     
     2     -3.3744664     23  2.300                                                                 
     2     -4.7350490     23  2.300                                                                 
     0     -4.1331408     23  2.300                                                                 
     0      7.6656614     23  2.300                                                                 
     1     -2.7211652     23  2.300                                                                 
     1     20.4087390     23  2.300                                                                 
  local pseudopotential read in
  partial core-charges read in
  partial kinetic energy density read in
  atomic valenz-charges read in
  non local Contribution for L=           2  read in
    real space projection operators read in
  non local Contribution for L=           2  read in
    real space projection operators read in
  non local Contribution for L=           0  read in
    real space projection operators read in
  non local Contribution for L=           0  read in
    real space projection operators read in
  non local Contribution for L=           1  read in
    real space projection operators read in
  non local Contribution for L=           1  read in
    real space projection operators read in
    PAW grid and wavefunctions read in
 
   number of l-projection  operators is LMAX  =           6
   number of lm-projection operators is LMMAX =          18
 
 POTCAR:    PAW_PBE O 08Apr2002                   
   SHA256 =  818f92134a0a090dccd8ba1447fa70422a3b330e708bb4f08108d8ae51209ddf O/POTCAR              
   COPYR  = (c) Copyright 08Apr2002 Georg Kresse                                                    
   COPYR  = This file is part of the software VASP. Any use, copying, and all other rights are regul
   COPYR  = If you do not have a valid VASP license, you may not use, copy or distribute this file. 
   VRHFIN =O: s2p4                                                                                  
   LEXCH  = PE                                                                                      
   EATOM  =   432.3788 eV,   31.7789 Ry                                                             
                                                                                                    
   TITEL  = PAW_PBE O 08Apr2002                                                                     
   LULTRA =        F    use ultrasoft PP ?                                                          
   IUNSCR =        1    unscreen: 0-lin 1-nonlin 2-no                                               
   RPACOR =    1.200    partial core radius                                                         
   POMASS =   16.000; ZVAL   =    6.000    mass and valenz                                          
   RCORE  =    1.520    outmost cutoff radius                                                       
   RWIGS  =    1.550; RWIGS  =    0.820    wigner-seitz radius (au A)                               
   ENMAX  =  400.000; ENMIN  =  300.000 eV                                                          
   ICORE  =        2    local potential                                                             
   LCOR   =        T    correct aug charges                                                         
   LPAW   =        T    paw PP                                                                      
   EAUG   =  605.392                                                                                
   DEXC   =    0.000                                                                                
   RMAX   =    1.553    core radius for proj-oper                                                   
   RAUG   =    1.300    factor for augmentation sphere                                              
   RDEP   =    1.550    radius for radial grids                                                     
   RDEPT  =    1.329    core radius for aug-charge                                                  
                                                                                                    
   Atomic configuration                                                                             
    4 entries                                                                                       
     n  l   j            E        occ.                                                              
     1  0  0.50      -514.6923   2.0000                                                             
     2  0  0.50       -23.9615   2.0000                                                             
     2  1  0.50        -9.0305   4.0000                                                             
     3  2  1.50        -9.5241   0.0000                                                             
   Description                                                                                      
     l       E           TYP  RCUT    TYP  RCUT                                                     
     0    -23.9615318     23  1.200                                                                 
     0     -9.5240782     23  1.200                                                                 
     1     -9.0304911     23  1.520                                                                 
     1      8.1634956     23  1.520                                                                 
     2     -9.5240782      7  1.500                                                                 
  local pseudopotential read in
  partial core-charges read in
  partial kinetic energy density read in
  kinetic energy density of atom read in
  atomic valenz-charges read in
  non local Contribution for L=           0  read in
    real space projection operators read in
  non local Contribution for L=           0  read in
    real space projection operators read in
  non local Contribution for L=           1  read in
    real space projection operators read in
  non local Contribution for L=           1  read in
    real space projection operators read in
    PAW grid and wavefunctions read in
 
   number of l-projection  operators is LMAX  =           4
   number of lm-projection operators is LMMAX =           8
 
 -----------------------------------------------------------------------------
|                                                                             |
|               ----> ADVICE to this user running VASP <----                  |
|                                                                             |
|     You have a (more or less) 'large supercell' and for larger cells it     |
|     might be more efficient to use real-space projection operators.         |
|     Therefore, try LREAL= Auto in the INCAR file.                           |
|     Mind: For very accurate calculation, you might also keep the            |
|     reciprocal projection scheme (i.e. LREAL=.FALSE.).                      |
|                                                                             |
 -----------------------------------------------------------------------------

  PAW_PBE Mn 06Sep2000                  :
 energy of atom  1       EATOM= -416.7541
 kinetic energy error for atom=    0.0024 (will be added to EATOM!!)
  PAW_PBE O 08Apr2002                   :
 energy of atom  2       EATOM= -432.3788
 kinetic energy error for atom=    0.0208 (will be added to EATOM!!)
 
 
 POSCAR: Mn  O
  positions in direct lattice
  No initial velocities read in
 exchange correlation table for  LEXCH =        8
   RHO(1)=    0.500       N(1)  =     2000
   RHO(2)=  100.500       N(2)  =     4000
 


--------------------------------------------------------------------------------------------------------


 ion  position               nearest neighbor table
   1  0.500  0.732  0.133-  16 1.92  16 1.92  15 2.00   9 2.03  12 2.07   8 3.13   8 3.13
   2  0.500  0.268  0.867-  18 1.92  18 1.92  10 2.00   9 2.03  11 2.07   7 3.13   7 3.13
   3  0.500  0.768  0.633-  13 1.92  13 1.92  11 2.00  17 2.03  10 2.07   5 3.13   5 3.13
   4  0.500  0.232  0.367-  14 1.92  14 1.92  12 2.00  17 2.03  15 2.07   6 3.13   6 3.13
   5  0.000  0.753  0.397-  13 2.15  12 2.18  12 2.18  14 2.34  17 2.56  17 2.56   3 3.13   3 3.13

   6  0.000  0.247  0.603-  14 2.15  11 2.18  11 2.18  13 2.34  17 2.56  17 2.56   4 3.13   4 3.13

   7  0.000  0.253  0.103-  18 2.15  15 2.18  15 2.18  16 2.34   9 2.56   9 2.56   2 3.13   2 3.13

   8  0.000  0.747  0.897-  16 2.15  10 2.18  10 2.18  18 2.34   9 2.56   9 2.56   1 3.13   1 3.13

   9  0.500  0.000  0.000-   1 2.03   2 2.03   8 2.56   7 2.56   7 2.56   8 2.56
  10  0.500  0.622  0.812-   2 2.00   3 2.07   8 2.18   8 2.18
  11  0.500  0.122  0.688-   3 2.00   2 2.07   6 2.18   6 2.18
  12  0.500  0.878  0.312-   4 2.00   1 2.07   5 2.18   5 2.18
  13  0.000  0.814  0.596-   3 1.92   3 1.92   5 2.15   6 2.34
  14  0.000  0.186  0.404-   4 1.92   4 1.92   6 2.15   5 2.34
  15  0.500  0.378  0.188-   1 2.00   4 2.07   7 2.18   7 2.18
  16  0.000  0.686  0.096-   1 1.92   1 1.92   8 2.15   7 2.34
  17  0.500  0.500  0.500-   3 2.03   4 2.03   5 2.56   6 2.56   5 2.56   6 2.56
  18  0.000  0.314  0.904-   2 1.92   2 1.92   7 2.15   8 2.34
 
  LATTYP: Found a simple orthorhombic cell.
 ALAT       =     3.7168995800
 B/A-ratio  =     1.4549111603
 C/A-ratio  =     2.8731767163
  
  Lattice vectors:
  
 A1 = (   3.7168995800,   0.0000000000,   0.0000000000)
 A2 = (   0.0000000000,   5.4077586807,   0.0000000000)
 A3 = (   0.0000000000,   0.0000000000,  10.6793093300)


Analysis of symmetry for initial positions (statically):
=====================================================================
 Subroutine PRICEL returns:
 Original cell was already a primitive cell.
 

 Routine SETGRP: Setting up the symmetry group for a 
 simple orthorhombic supercell.


 Subroutine GETGRP returns: Found  8 space group operations
 (whereof  4 operations were pure point group operations)
 out of a pool of  8 trial point group operations.


The static configuration has the point symmetry C_2h.
 The point group associated with its full space group is D_2h.


Analysis of symmetry for dynamics (positions and initial velocities):
=====================================================================
 Subroutine PRICEL returns:
 Original cell was already a primitive cell.
 

 Routine SETGRP: Setting up the symmetry group for a 
 simple orthorhombic supercell.


 Subroutine GETGRP returns: Found  8 space group operations
 (whereof  4 operations were pure point group operations)
 out of a pool of  8 trial point group operations.


The dynamic configuration has the point symmetry C_2h.
 The point group associated with its full space group is D_2h.


Analysis of structural, dynamic, and magnetic symmetry:
=====================================================================
 Subroutine PRICEL returns:
 Original cell was already a primitive cell.
 

 Routine SETGRP: Setting up the symmetry group for a 
 simple orthorhombic supercell.


 Subroutine GETGRP returns: Found  8 space group operations
 (whereof  4 operations were pure point group operations)
 out of a pool of  8 trial point group operations.


The magnetic configuration has the point symmetry C_2h.
 The point group associated with its full space group is D_2h.


 Subroutine INISYM returns: Found  8 space group operations
 (whereof  4 operations are pure point group operations),
 and found     1 'primitive' translations


----------------------------------------------------------------------------------------

                                     Primitive cell                                     

  volume of cell :     214.6551

  direct lattice vectors                    reciprocal lattice vectors
     3.716899580  0.000000000  0.000000000     0.269041436 -0.000000000  0.000000000
     0.000000000  5.407758681  0.000000000     0.000000000  0.184919494  0.000000000
     0.000000000  0.000000000 10.679309330    -0.000000000 -0.000000000  0.093639014

  length of vectors
     3.716899580  5.407758681 10.679309330     0.269041436  0.184919494  0.093639014

  position of ions in fractional coordinates (direct lattice)
     0.500000000  0.731728925  0.132781145
     0.500000000  0.268271075  0.867218855
     0.500000000  0.768271075  0.632781145
     0.500000000  0.231728925  0.367218855
     0.000000000  0.752980995  0.397266325
     1.000000000  0.247019005  0.602733675
     0.000000000  0.252980995  0.102733675
     0.000000000  0.747019005  0.897266325
     0.500000000  0.000000000  0.000000000
     0.500000000  0.622026635  0.812091675
     0.500000000  0.122026635  0.687908325
     0.500000000  0.877973365  0.312091675
     1.000000000  0.814106895  0.596202835
     1.000000000  0.185893105  0.403797165
     0.500000000  0.377973365  0.187908325
     0.000000000  0.685893105  0.096202835
     0.500000000  0.500000000  0.500000000
     0.000000000  0.314106895  0.903797165

  ion indices of the primitive-cell ions
   primitive index   ion index
                 1           1
                 2           2
                 3           3
                 4           4
                 5           5
                 6           6
                 7           7
                 8           8
                 9           9
                10          10
                11          11
                12          12
                13          13
                14          14
                15          15
                16          16
                17          17
                18          18

----------------------------------------------------------------------------------------

 
 

Automatic generation of k-mesh.
 generate k-points for:    9    6    3
Space group operators:
 irot       det(A)        alpha          n_x          n_y          n_z        tau_x        tau_y        tau_z
    1     1.000000     0.000001     1.000000     0.000000     0.000000     0.000000     0.000000     0.000000
    2    -1.000000     0.000001     1.000000     0.000000     0.000000     0.000000     0.000000     0.000000
    3     1.000000   180.000000     1.000000    -0.000000     0.000000     0.000000     0.000000     0.000000
    4    -1.000000   180.000000     1.000000    -0.000000     0.000000     0.000000     0.000000     0.000000
    5     1.000000   179.999999    -0.000000    -0.000000     1.000000     0.000000    -0.500000    -0.500000
    6    -1.000000   179.999999    -0.000000    -0.000000     1.000000     0.000000    -0.500000    -0.500000
    7     1.000000   180.000000     0.000000     1.000000     0.000000     0.000000    -0.500000    -0.500000
    8    -1.000000   180.000000     0.000000     1.000000     0.000000     0.000000    -0.500000    -0.500000
 
 Subroutine IBZKPT returns following result:
 ===========================================
 
 Found     40 irreducible k-points:
 
 Following reciprocal coordinates:
            Coordinates               Weight
  0.000000  0.000000  0.000000      1.000000
  0.111111  0.000000  0.000000      2.000000
  0.222222  0.000000  0.000000      2.000000
  0.333333  0.000000  0.000000      2.000000
  0.444444  0.000000  0.000000      2.000000
  0.000000  0.166667  0.000000      2.000000
  0.111111  0.166667  0.000000      4.000000
  0.222222  0.166667  0.000000      4.000000
  0.333333  0.166667  0.000000      4.000000
  0.444444  0.166667  0.000000      4.000000
  0.000000  0.333333  0.000000      2.000000
  0.111111  0.333333  0.000000      4.000000
  0.222222  0.333333  0.000000      4.000000
  0.333333  0.333333  0.000000      4.000000
  0.444444  0.333333  0.000000      4.000000
  0.000000  0.500000  0.000000      1.000000
  0.111111  0.500000  0.000000      2.000000
  0.222222  0.500000  0.000000      2.000000
  0.333333  0.500000  0.000000      2.000000
  0.444444  0.500000  0.000000      2.000000
 -0.000000  0.000000  0.333333      2.000000
  0.111111  0.000000  0.333333      4.000000
  0.222222  0.000000  0.333333      4.000000
  0.333333  0.000000  0.333333      4.000000
  0.444444  0.000000  0.333333      4.000000
 -0.000000  0.166667  0.333333      4.000000
  0.111111  0.166667  0.333333      8.000000
  0.222222  0.166667  0.333333      8.000000
  0.333333  0.166667  0.333333      8.000000
  0.444444  0.166667  0.333333      8.000000
 -0.000000  0.333333  0.333333      4.000000
  0.111111  0.333333  0.333333      8.000000
  0.222222  0.333333  0.333333      8.000000
  0.333333  0.333333  0.333333      8.000000
  0.444444  0.333333  0.333333      8.000000
 -0.000000  0.500000  0.333333      2.000000
  0.111111  0.500000  0.333333      4.000000
  0.222222  0.500000  0.333333      4.000000
  0.333333  0.500000  0.333333      4.000000
  0.444444  0.500000  0.333333      4.000000
 
 Following cartesian coordinates:
            Coordinates               Weight
  0.000000  0.000000  0.000000      1.000000
  0.029893 -0.000000  0.000000      2.000000
  0.059787 -0.000000  0.000000      2.000000
  0.089680 -0.000000  0.000000      2.000000
  0.119574 -0.000000  0.000000      2.000000
  0.000000  0.030820  0.000000      2.000000
  0.029893  0.030820  0.000000      4.000000
  0.059787  0.030820  0.000000      4.000000
  0.089680  0.030820  0.000000      4.000000
  0.119574  0.030820  0.000000      4.000000
  0.000000  0.061640  0.000000      2.000000
  0.029893  0.061640  0.000000      4.000000
  0.059787  0.061640  0.000000      4.000000
  0.089680  0.061640  0.000000      4.000000
  0.119574  0.061640  0.000000      4.000000
  0.000000  0.092460  0.000000      1.000000
  0.029893  0.092460  0.000000      2.000000
  0.059787  0.092460  0.000000      2.000000
  0.089680  0.092460  0.000000      2.000000
  0.119574  0.092460  0.000000      2.000000
 -0.000000 -0.000000  0.031213      2.000000
  0.029893 -0.000000  0.031213      4.000000
  0.059787 -0.000000  0.031213      4.000000
  0.089680 -0.000000  0.031213      4.000000
  0.119574 -0.000000  0.031213      4.000000
 -0.000000  0.030820  0.031213      4.000000
  0.029893  0.030820  0.031213      8.000000
  0.059787  0.030820  0.031213      8.000000
  0.089680  0.030820  0.031213      8.000000
  0.119574  0.030820  0.031213      8.000000
 -0.000000  0.061640  0.031213      4.000000
  0.029893  0.061640  0.031213      8.000000
  0.059787  0.061640  0.031213      8.000000
  0.089680  0.061640  0.031213      8.000000
  0.119574  0.061640  0.031213      8.000000
 -0.000000  0.092460  0.031213      2.000000
  0.029893  0.092460  0.031213      4.000000
  0.059787  0.092460  0.031213      4.000000
  0.089680  0.092460  0.031213      4.000000
  0.119574  0.092460  0.031213      4.000000
 


--------------------------------------------------------------------------------------------------------




 Dimension of arrays:
   k-points           NKPTS =     40   k-points in BZ     NKDIM =     40   number of bands    NBANDS=     90
   number of dos      NEDOS =    301   number of ions     NIONS =     18
   non local maximal  LDIM  =      6   non local SUM 2l+1 LMDIM =     18
   total plane-waves  NPLWV =  43200
   max r-space proj   IRMAX =      1   max aug-charges    IRDMAX=   7598
   dimension x,y,z NGX =    24 NGY =   30 NGZ =   60
   dimension x,y,z NGXF=    48 NGYF=   60 NGZF=  120
   support grid    NGXF=    48 NGYF=   60 NGZF=  120
   ions per type =               8  10
   NGX,Y,Z   is equivalent  to a cutoff of  10.73,  9.22,  9.34 a.u.
   NGXF,Y,Z  is equivalent  to a cutoff of  21.47, 18.45, 18.68 a.u.

 SYSTEM =  unknown system                          
 POSCAR =  Mn  O                                   

 Startparameter for this run:
   NWRITE =      2    write-flag & timer
   PREC   = n         normal or accurate (medium, high low for compatibility)
   ISTART =      0    job   : 0-new  1-cont  2-samecut
   ICHARG =      2    charge: 1-file 2-atom 10-const
   ISPIN  =      2    spin polarized calculation?
   LNONCOLLINEAR =      F non collinear calculations
   LSORBIT =      F    spin-orbit coupling
   INIWAV =      1    electr: 0-lowe 1-rand  2-diag
   LASPH  =      F    aspherical Exc in radial PAW
   METAGGA=      F    non-selfconsistent MetaGGA calc.

 Electronic Relaxation 1
   ENCUT  =  520.0 eV  38.22 Ry    6.18 a.u.   6.91 10.05 19.86*2*pi/ulx,y,z
   ENINI  =  520.0     initial cutoff
   ENAUG  =  605.4 eV  augmentation charge cutoff
   NELM   =    500;   NELMIN=  6; NELMDL= -5     # of ELM steps 
   EDIFF  = 0.1E-04   stopping-criterion for ELM
   LREAL  =      F    real-space projection
   NLSPLINE    = F    spline interpolate recip. space projectors
   LCOMPAT=      F    compatible to vasp.4.4
   GGA_COMPAT  = T    GGA compatible to vasp.4.4-vasp.4.6
   LMAXPAW     = -100 max onsite density
   LMAXMIX     =    4 max onsite mixed and CHGCAR
   VOSKOWN=      0    Vosko Wilk Nusair interpolation
   ROPT   =    0.00000   0.00000
 Ionic relaxation
   EDIFFG = 0.1E-03   stopping-criterion for IOM
   NSW    =      0    number of steps for IOM
   NBLOCK =      1;   KBLOCK =      1    inner block; outer block 
   IBRION =     -1    ionic relax: 0-MD 1-quasi-New 2-CG
   NFREE  =      0    steps in history (QN), initial steepest desc. (CG)
   ISIF   =      2    stress and relaxation
   IWAVPR =     10    prediction:  0-non 1-charg 2-wave 3-comb
   ISYM   =      2    0-nonsym 1-usesym 2-fastsym
   LCORR  =      T    Harris-Foulkes like correction to forces

   POTIM  = 0.5000    time-step for ionic-motion
   TEIN   =    0.0    initial temperature
   TEBEG  =    0.0;   TEEND  =   0.0 temperature during run
   SMASS  =  -3.00    Nose mass-parameter (am)
   estimated Nose-frequenzy (Omega)   =  0.10E-29 period in steps = 0.13E+47 mass=  -0.316E-27a.u.
   SCALEE = 1.0000    scale energy and forces
   NPACO  =    256;   APACO  = 16.0  distance and # of slots for P.C.
   PSTRESS=    0.0 pullay stress

  Mass of Ions in am
   POMASS =  54.94 16.00
  Ionic Valenz
   ZVAL   =   7.00  6.00
  Atomic Wigner-Seitz radii
   RWIGS  =  -1.00 -1.00
  virtual crystal weights 
   VCA    =   1.00  1.00
   NELECT =     116.0000    total number of electrons
   NUPDOWN=      -1.0000    fix difference up-down

 DOS related values:
   EMIN   =  10.00;   EMAX   =-10.00  energy-range for DOS
   EFERMI =   0.00
   ISMEAR =     0;   SIGMA  =   0.05  broadening in eV -4-tet -1-fermi 0-gaus

 Electronic relaxation 2 (details)
   IALGO  =     53    algorithm
   LDIAG  =      T    sub-space diagonalisation (order eigenvalues)
   LSUBROT=      F    optimize rotation matrix (better conditioning)
   TURBO    =      0    0=normal 1=particle mesh
   IRESTART =      0    0=no restart 2=restart with 2 vectors
   NREBOOT  =      0    no. of reboots
   NMIN     =      0    reboot dimension
   EREF     =   0.00    reference energy to select bands
   IMIX   =      4    mixing-type and parameters
     AMIX     =   0.20;   BMIX     =  0.00
     AMIX_MAG =   0.80;   BMIX_MAG =  0.00
     AMIN     =   0.10
     WC   =   100.;   INIMIX=   1;  MIXPRE=   1;  MAXMIX= -45

 Intra band minimization:
   WEIMIN = 0.0000     energy-eigenvalue tresh-hold
   EBREAK =  0.28E-07  absolut break condition
   DEPER  =   0.30     relativ break condition  

   TIME   =   0.40     timestep for ELM

  volume/ion in A,a.u.               =      11.93        80.48
  Fermi-wavevector in a.u.,A,eV,Ry     =   1.333461  2.519876 24.192776  1.778119
  Thomas-Fermi vector in A             =   2.462318
 
 Write flags
   LWAVE        =      T    write WAVECAR
   LDOWNSAMPLE  =      F    k-point downsampling of WAVECAR
   LCHARG       =      T    write CHGCAR
   LVTOT        =      F    write LOCPOT, total local potential
   LVHAR        =      F    write LOCPOT, Hartree potential only
   LELF         =      F    write electronic localiz. function (ELF)
   LORBIT       =      0    0 simple, 1 ext, 2 COOP (PROOUT), +10 PAW based schemes


 Dipole corrections
   LMONO  =      F    monopole corrections only (constant potential shift)
   LDIPOL =      F    correct potential (dipole corrections)
   IDIPOL =      0    1-x, 2-y, 3-z, 4-all directions 
   EPSILON=  1.0000000 bulk dielectric constant

 LDA+U is selected, type is set to LDAUTYPE =  2
   angular momentum for each species LDAUL =     2    1
   U (eV)           for each species LDAUU =   3.4  0.0
   J (eV)           for each species LDAUJ =   0.0  0.0
 Exchange correlation treatment:
   GGA     =    PE    GGA type
   LEXCH   =     8    internal setting for exchange type
   VOSKOWN=      0    Vosko Wilk Nusair interpolation
   LHFCALC =     F    Hartree Fock is set to
   LHFONE  =     F    Hartree Fock one center treatment
   AEXX    =    0.0000 exact exchange contribution

 Linear response parameters
   LEPSILON=     F    determine dielectric tensor
   LRPA    =     F    only Hartree local field effects (RPA)
   LNABLA  =     F    use nabla operator in PAW spheres
   LVEL    =     F    velocity operator in full k-point grid
   LINTERFAST=   F  fast interpolation
   KINTER  =     0    interpolate to denser k-point grid
   CSHIFT  =0.1000    complex shift for real part using Kramers Kronig
   OMEGAMAX=  -1.0    maximum frequency
   DEG_THRESHOLD= 0.2000000E-02 threshold for treating states as degnerate
   RTIME   =   -0.100 relaxation time in fs
  (WPLASMAI=    0.000 imaginary part of plasma frequency in eV, 0.658/RTIME)
   DFIELD  = 0.0000000 0.0000000 0.0000000 field for delta impulse in time
 
 Orbital magnetization related:
   ORBITALMAG=     F  switch on orbital magnetization
   LCHIMAG   =     F  perturbation theory with respect to B field
   DQ        =  0.001000  dq finite difference perturbation B field
   LLRAUG    =     F  two centre corrections for induced B field



--------------------------------------------------------------------------------------------------------


 Static calculation
 charge density and potential will be updated during run
 spin polarized calculation
 Conjugate gradient for all bands (Freysoldt, et al. PRB 79, 241103 (2009))
 perform sub-space diagonalisation
    before iterative eigenvector-optimisation
 modified Broyden-mixing scheme, WC =      100.0
 initial mixing is a Kerker type mixing with AMIX =  0.2000 and BMIX =      0.0000
 Hartree-type preconditioning will be used
 using additional bands           32
 reciprocal scheme for non local part
 use partial core corrections
 no Harris-corrections to forces 
 use gradient corrections 
 use of overlap-Matrix (Vanderbilt PP)
 Gauss-broadening in eV      SIGMA  =   0.05


--------------------------------------------------------------------------------------------------------


  energy-cutoff  :      520.00
  volume of cell :      214.66
      direct lattice vectors                 reciprocal lattice vectors
     3.716899580  0.000000000  0.000000000     0.269041436 -0.000000000  0.000000000
     0.000000000  5.407758681  0.000000000     0.000000000  0.184919494  0.000000000
     0.000000000  0.000000000 10.679309330    -0.000000000 -0.000000000  0.093639014

  length of vectors
     3.716899580  5.407758681 10.679309330     0.269041436  0.184919494  0.093639014


 
 k-points in units of 2pi/SCALE and weight: read from INCAR                         
   0.00000000  0.00000000  0.00000000       0.006
   0.02989349 -0.00000000  0.00000000       0.012
   0.05978699 -0.00000000  0.00000000       0.012
   0.08968048 -0.00000000  0.00000000       0.012
   0.11957397 -0.00000000  0.00000000       0.012
   0.00000000  0.03081992  0.00000000       0.012
   0.02989349  0.03081992  0.00000000       0.025
   0.05978699  0.03081992  0.00000000       0.025
   0.08968048  0.03081992  0.00000000       0.025
   0.11957397  0.03081992  0.00000000       0.025
   0.00000000  0.06163983  0.00000000       0.012
   0.02989349  0.06163983  0.00000000       0.025
   0.05978699  0.06163983  0.00000000       0.025
   0.08968048  0.06163983  0.00000000       0.025
   0.11957397  0.06163983  0.00000000       0.025
   0.00000000  0.09245975  0.00000000       0.006
   0.02989349  0.09245975  0.00000000       0.012
   0.05978699  0.09245975  0.00000000       0.012
   0.08968048  0.09245975  0.00000000       0.012
   0.11957397  0.09245975  0.00000000       0.012
  -0.00000000 -0.00000000  0.03121300       0.012
   0.02989349 -0.00000000  0.03121300       0.025
   0.05978699 -0.00000000  0.03121300       0.025
   0.08968048 -0.00000000  0.03121300       0.025
   0.11957397 -0.00000000  0.03121300       0.025
  -0.00000000  0.03081992  0.03121300       0.025
   0.02989349  0.03081992  0.03121300       0.049
   0.05978699  0.03081992  0.03121300       0.049
   0.08968048  0.03081992  0.03121300       0.049
   0.11957397  0.03081992  0.03121300       0.049
  -0.00000000  0.06163983  0.03121300       0.025
   0.02989349  0.06163983  0.03121300       0.049
   0.05978699  0.06163983  0.03121300       0.049
   0.08968048  0.06163983  0.03121300       0.049
   0.11957397  0.06163983  0.03121300       0.049
  -0.00000000  0.09245975  0.03121300       0.012
   0.02989349  0.09245975  0.03121300       0.025
   0.05978699  0.09245975  0.03121300       0.025
   0.08968048  0.09245975  0.03121300       0.025
   0.11957397  0.09245975  0.03121300       0.025
 
 k-points in reciprocal lattice and weights: read from INCAR                         
   0.00000000  0.00000000  0.00000000       0.006
   0.11111111  0.00000000  0.00000000       0.012
   0.22222222  0.00000000  0.00000000       0.012
   0.33333333  0.00000000  0.00000000       0.012
   0.44444444  0.00000000  0.00000000       0.012
   0.00000000  0.16666667  0.00000000       0.012
   0.11111111  0.16666667  0.00000000       0.025
   0.22222222  0.16666667  0.00000000       0.025
   0.33333333  0.16666667  0.00000000       0.025
   0.44444444  0.16666667  0.00000000       0.025
   0.00000000  0.33333333  0.00000000       0.012
   0.11111111  0.33333333  0.00000000       0.025
   0.22222222  0.33333333  0.00000000       0.025
   0.33333333  0.33333333  0.00000000       0.025
   0.44444444  0.33333333  0.00000000       0.025
   0.00000000  0.50000000  0.00000000       0.006
   0.11111111  0.50000000  0.00000000       0.012
   0.22222222  0.50000000  0.00000000       0.012
   0.33333333  0.50000000  0.00000000       0.012
   0.44444444  0.50000000  0.00000000       0.012
  -0.00000000  0.00000000  0.33333333       0.012
   0.11111111  0.00000000  0.33333333       0.025
   0.22222222  0.00000000  0.33333333       0.025
   0.33333333  0.00000000  0.33333333       0.025
   0.44444444  0.00000000  0.33333333       0.025
  -0.00000000  0.16666667  0.33333333       0.025
   0.11111111  0.16666667  0.33333333       0.049
   0.22222222  0.16666667  0.33333333       0.049
   0.33333333  0.16666667  0.33333333       0.049
   0.44444444  0.16666667  0.33333333       0.049
  -0.00000000  0.33333333  0.33333333       0.025
   0.11111111  0.33333333  0.33333333       0.049
   0.22222222  0.33333333  0.33333333       0.049
   0.33333333  0.33333333  0.33333333       0.049
   0.44444444  0.33333333  0.33333333       0.049
  -0.00000000  0.50000000  0.33333333       0.012
   0.11111111  0.50000000  0.33333333       0.025
   0.22222222  0.50000000  0.33333333       0.025
   0.33333333  0.50000000  0.33333333       0.025
   0.44444444  0.50000000  0.33333333       0.025
 
 position of ions in fractional coordinates (direct lattice) 
   0.50000000  0.73172892  0.13278115
   0.50000000  0.26827108  0.86721885
   0.50000000  0.76827108  0.63278115
   0.50000000  0.23172892  0.36721885
   0.00000000  0.75298100  0.39726632
   0.00000000  0.24701900  0.60273368
   0.00000000  0.25298100  0.10273368
   0.00000000  0.74701900  0.89726632
   0.50000000  0.00000000  0.00000000
   0.50000000  0.62202663  0.81209167
   0.50000000  0.12202663  0.68790833
   0.50000000  0.87797337  0.31209167
   0.00000000  0.81410690  0.59620283
   0.00000000  0.18589310  0.40379717
   0.50000000  0.37797337  0.18790833
   0.00000000  0.68589310  0.09620283
   0.50000000  0.50000000  0.50000000
   0.00000000  0.31410690  0.90379717
 
 position of ions in cartesian coordinates  (Angst):
   1.85844979  3.95701345  1.41801092
   1.85844979  1.45074523  9.26129841
   1.85844979  4.15462457  6.75766559
   1.85844979  1.25313411  3.92164374
   0.00000000  4.07193951  4.24252997
   0.00000000  1.33581917  6.43677936
   0.00000000  1.36806017  1.09712469
   0.00000000  4.03969851  9.58218464
   1.85844979  0.00000000  0.00000000
   1.85844979  3.36376994  8.67257820
   1.85844979  0.65989059  7.34638579
   1.85844979  4.74786809  3.33292354
   0.00000000  4.40249363  6.36703450
   0.00000000  1.00526505  4.31227483
   1.85844979  2.04398875  2.00673113
   0.00000000  3.70914439  1.02737983
   1.85844979  2.70387934  5.33965467
   0.00000000  1.69861429  9.65192950
 


--------------------------------------------------------------------------------------------------------


 k-point   1 :   0.0000 0.0000 0.0000  plane waves:    5735
 k-point   2 :   0.1111 0.0000 0.0000  plane waves:    5746
 k-point   3 :   0.2222 0.0000 0.0000  plane waves:    5772
 k-point   4 :   0.3333 0.0000 0.0000  plane waves:    5750
 k-point   5 :   0.4444 0.0000 0.0000  plane waves:    5790
 k-point   6 :   0.0000 0.1667 0.0000  plane waves:    5756
 k-point   7 :   0.1111 0.1667 0.0000  plane waves:    5765
 k-point   8 :   0.2222 0.1667 0.0000  plane waves:    5794
 k-point   9 :   0.3333 0.1667 0.0000  plane waves:    5792
 k-point  10 :   0.4444 0.1667 0.0000  plane waves:    5791
 k-point  11 :   0.0000 0.3333 0.0000  plane waves:    5752
 k-point  12 :   0.1111 0.3333 0.0000  plane waves:    5771
 k-point  13 :   0.2222 0.3333 0.0000  plane waves:    5773
 k-point  14 :   0.3333 0.3333 0.0000  plane waves:    5801
 k-point  15 :   0.4444 0.3333 0.0000  plane waves:    5797
 k-point  16 :   0.0000 0.5000 0.0000  plane waves:    5776
 k-point  17 :   0.1111 0.5000 0.0000  plane waves:    5770
 k-point  18 :   0.2222 0.5000 0.0000  plane waves:    5792
 k-point  19 :   0.3333 0.5000 0.0000  plane waves:    5800
 k-point  20 :   0.4444 0.5000 0.0000  plane waves:    5814
 k-point  21 :  -0.0000 0.0000 0.3333  plane waves:    5748
 k-point  22 :   0.1111 0.0000 0.3333  plane waves:    5759
 k-point  23 :   0.2222 0.0000 0.3333  plane waves:    5765
 k-point  24 :   0.3333 0.0000 0.3333  plane waves:    5788
 k-point  25 :   0.4444 0.0000 0.3333  plane waves:    5788
 k-point  26 :  -0.0000 0.1667 0.3333  plane waves:    5764
 k-point  27 :   0.1111 0.1667 0.3333  plane waves:    5760
 k-point  28 :   0.2222 0.1667 0.3333  plane waves:    5787
 k-point  29 :   0.3333 0.1667 0.3333  plane waves:    5782
 k-point  30 :   0.4444 0.1667 0.3333  plane waves:    5792
 k-point  31 :  -0.0000 0.3333 0.3333  plane waves:    5770
 k-point  32 :   0.1111 0.3333 0.3333  plane waves:    5769
 k-point  33 :   0.2222 0.3333 0.3333  plane waves:    5791
 k-point  34 :   0.3333 0.3333 0.3333  plane waves:    5792
 k-point  35 :   0.4444 0.3333 0.3333  plane waves:    5797
 k-point  36 :  -0.0000 0.5000 0.3333  plane waves:    5794
 k-point  37 :   0.1111 0.5000 0.3333  plane waves:    5794
 k-point  38 :   0.2222 0.5000 0.3333  plane waves:    5772
 k-point  39 :   0.3333 0.5000 0.3333  plane waves:    5778
 k-point  40 :   0.4444 0.5000 0.3333  plane waves:    5796

 maximum and minimum number of plane-waves per node :      1465     1419

 maximum number of plane-waves:      5814
 maximum index in each direction: 
   IXMAX=    6   IYMAX=   10   IZMAX=   19
   IXMIN=   -7   IYMIN=  -10   IZMIN=  -20


 parallel 3D FFT for wavefunctions:
    minimum data exchange during FFTs selected (reduces bandwidth)
 parallel 3D FFT for charge:
    minimum data exchange during FFTs selected (reduces bandwidth)


 total amount of memory used by VASP MPI-rank0    84801. kBytes
=======================================================================

   base      :      30000. kBytes
   nonl-proj :      17357. kBytes
   fftplans  :        586. kBytes
   grid      :       1453. kBytes
   one-center:        155. kBytes
   wavefun   :      35250. kBytes
 
     INWAV:  cpu time    0.0000: real time    0.0000
 Broyden mixing: mesh for mixing (old mesh)
   NGX = 13   NGY = 21   NGZ = 39
  (NGX  = 48   NGY  = 60   NGZ  =120)
  gives a total of  10647 points

 initial charge density was supplied:
 charge density of overlapping atoms calculated
 number of electron     116.0000000 magnetization      32.0000000
 keeping initial charge density in first step


--------------------------------------------------------------------------------------------------------


 Maximum index for augmentation-charges          409 (set IRDMAX)


--------------------------------------------------------------------------------------------------------


 First call to EWALD:  gamma=   0.296
 Maximum number of real-space cells 4x 3x 2
 Maximum number of reciprocal cells 2x 3x 5

    FEWALD:  cpu time    0.0024: real time    0.0024


--------------------------------------- Iteration      1(   1)  ---------------------------------------


    POTLOK:  cpu time    0.0303: real time    0.0306
    SETDIJ:  cpu time    0.0077: real time    0.0079
    TRIAL :  cpu time    1.4775: real time    1.4812
    CORREC:  cpu time    0.0017: real time    0.0017
    --------------------------------------------
      LOOP:  cpu time    1.5304: real time    1.5377

 eigenvalue-minimisations  : 14400
 total energy-change (2. order) : 0.2119307E+04  (-0.4842267E+04)
 number of electron     116.0000000 magnetization      32.0000000
 augmentation part      116.0000000 magnetization      32.0000000

 Free energy of the ion-electron system (eV)
  ---------------------------------------------------
  alpha Z        PSCENC =       466.11379109
  Ewald energy   TEWEN  =     -6422.67036760
  -Hartree energ DENC   =     -1824.12282641
  -exchange      EXHF   =         0.00000000
  -V(xc)+E(xc)   XCENC  =       189.09348510
  PAW double counting   =      6704.11821796    -6553.42763219
  entropy T*S    EENTRO =        -0.00848133
  eigenvalues    EBANDS =      1902.61748408
  atomic energy  EATOM  =      7657.59362038
  ---------------------------------------------------
  free energy    TOTEN  =      2119.30729108 eV

  energy without entropy =     2119.31577241  energy(sigma->0) =     2119.31153174


--------------------------------------------------------------------------------------------------------




--------------------------------------- Iteration      1(   2)  ---------------------------------------


    TRIAL :  cpu time    2.3666: real time    2.3713
    CORREC:  cpu time    0.0022: real time    0.0022
    --------------------------------------------
      LOOP:  cpu time    2.3734: real time    2.3827

 eigenvalue-minimisations  : 25170
 total energy-change (2. order) :-0.1539492E+04  (-0.1350065E+04)
 number of electron     116.0000000 magnetization      32.0000000
 augmentation part      116.0000000 magnetization      32.0000000

 Free energy of the ion-electron system (eV)
  ---------------------------------------------------
  alpha Z        PSCENC =       466.11379109
  Ewald energy   TEWEN  =     -6422.67036760
  -Hartree energ DENC   =     -1824.12282641
  -exchange      EXHF   =         0.00000000
  -V(xc)+E(xc)   XCENC  =       189.09348510
  PAW double counting   =      6704.11821796    -6553.42763219
  entropy T*S    EENTRO =        -0.01014189
  eigenvalues    EBANDS =       363.12703271
  atomic energy  EATOM  =      7657.59362038
  ---------------------------------------------------
  free energy    TOTEN  =       579.81517915 eV

  energy without entropy =      579.82532104  energy(sigma->0) =      579.82025009


--------------------------------------------------------------------------------------------------------




--------------------------------------- Iteration      1(   3)  ---------------------------------------


    TRIAL :  cpu time    2.5520: real time    2.5571
    CORREC:  cpu time    0.0014: real time    0.0015
    --------------------------------------------
      LOOP:  cpu time    2.5626: real time    2.5683

 eigenvalue-minimisations  : 26865
 total energy-change (2. order) :-0.5616451E+03  (-0.5127254E+03)
 number of electron     116.0000000 magnetization      32.0000000
 augmentation part      116.0000000 magnetization      32.0000000

 Free energy of the ion-electron system (eV)
  ---------------------------------------------------
  alpha Z        PSCENC =       466.11379109
  Ewald energy   TEWEN  =     -6422.67036760
  -Hartree energ DENC   =     -1824.12282641
  -exchange      EXHF   =         0.00000000
  -V(xc)+E(xc)   XCENC  =       189.09348510
  PAW double counting   =      6704.11821796    -6553.42763219
  entropy T*S    EENTRO =        -0.00993103
  eigenvalues    EBANDS =      -198.51831648
  atomic energy  EATOM  =      7657.59362038
  ---------------------------------------------------
  free energy    TOTEN  =        18.17004081 eV

  energy without entropy =       18.17997184  energy(sigma->0) =       18.17500632


--------------------------------------------------------------------------------------------------------




--------------------------------------- Iteration      1(   4)  ---------------------------------------


    TRIAL :  cpu time    2.7015: real time    2.7067
    CORREC:  cpu time    0.0014: real time    0.0014
    --------------------------------------------
      LOOP:  cpu time    2.7100: real time    2.7184

 eigenvalue-minimisations  : 28605
 total energy-change (2. order) :-0.1451352E+03  (-0.1338831E+03)
 number of electron     116.0000000 magnetization      32.0000000
 augmentation part      116.0000000 magnetization      32.0000000

 Free energy of the ion-electron system (eV)
  ---------------------------------------------------
  alpha Z        PSCENC =       466.11379109
  Ewald energy   TEWEN  =     -6422.67036760
  -Hartree energ DENC   =     -1824.12282641
  -exchange      EXHF   =         0.00000000
  -V(xc)+E(xc)   XCENC  =       189.09348510
  PAW double counting   =      6704.11821796    -6553.42763219
  entropy T*S    EENTRO =        -0.00286388
  eigenvalues    EBANDS =      -343.66054460
  atomic energy  EATOM  =      7657.59362038
  ---------------------------------------------------
  free energy    TOTEN  =      -126.96512016 eV

  energy without entropy =     -126.96225627  energy(sigma->0) =     -126.96368822


--------------------------------------------------------------------------------------------------------




--------------------------------------- Iteration      1(   5)  ---------------------------------------


    TRIAL :  cpu time    2.6696: real time    2.6750
    CORREC:  cpu time    0.0015: real time    0.0015
    CHARGE:  cpu time    0.0297: real time    0.0299
    --------------------------------------------
      LOOP:  cpu time    2.7030: real time    2.7164

 eigenvalue-minimisations  : 28770
 total energy-change (2. order) :-0.2758126E+02  (-0.2679882E+02)
 number of electron     116.0000092 magnetization      36.0000069
 augmentation part       31.1344810 magnetization      22.1867206

 Free energy of the ion-electron system (eV)
  ---------------------------------------------------
  alpha Z        PSCENC =       466.11379109
  Ewald energy   TEWEN  =     -6422.67036760
  -Hartree energ DENC   =     -1824.12282641
  -exchange      EXHF   =         0.00000000
  -V(xc)+E(xc)   XCENC  =       189.09348510
  PAW double counting   =      6704.11821796    -6553.42763219
  entropy T*S    EENTRO =        -0.00242768
  eigenvalues    EBANDS =      -371.24224193
  atomic energy  EATOM  =      7657.59362038
  ---------------------------------------------------
  free energy    TOTEN  =      -154.54638129 eV

  energy without entropy =     -154.54395360  energy(sigma->0) =     -154.54516745


--------------------------------------------------------------------------------------------------------




--------------------------------------- Iteration      1(   6)  ---------------------------------------


    POTLOK:  cpu time    0.0123: real time    0.0124
    SETDIJ:  cpu time    0.0048: real time    0.0048
    TRIAL :  cpu time    0.8909: real time    0.8930
    CORREC:  cpu time    0.0015: real time    0.0015
    CHARGE:  cpu time    0.0286: real time    0.0286
    --------------------------------------------
      LOOP:  cpu time    0.9398: real time    0.9503

 eigenvalue-minimisations  :     0
 total energy-change (2. order) : 0.9859402E+02  (-0.1891530E+03)
 number of electron     116.0000120 magnetization      36.0000095
 augmentation part       33.7132705 magnetization      26.2258087

 Free energy of the ion-electron system (eV)
  ---------------------------------------------------
  alpha Z        PSCENC =       466.11379109
  Ewald energy   TEWEN  =     -6422.67036760
  -Hartree energ DENC   =     -2203.86424312
  -exchange      EXHF   =         0.00000000
  -V(xc)+E(xc)   XCENC  =       239.18078735
  PAW double counting   =      9042.98092202    -8878.93011207
  entropy T*S    EENTRO =        -0.00371880
  eigenvalues    EBANDS =        43.64567232
  atomic energy  EATOM  =      7657.59362038
  ---------------------------------------------------
  free energy    TOTEN  =       -55.95235732 eV

  energy without entropy =      -55.94863852  energy(sigma->0) =      -55.95049792


--------------------------------------------------------------------------------------------------------




--------------------------------------- Iteration      1(   7)  ---------------------------------------


    POTLOK:  cpu time    0.0165: real time    0.0165
    SETDIJ:  cpu time    0.0019: real time    0.0019
    TRIAL :  cpu time    0.9000: real time    0.9018
    CORREC:  cpu time    0.0015: real time    0.0015
    CHARGE:  cpu time    0.0290: real time    0.0290
    --------------------------------------------
      LOOP:  cpu time    0.9512: real time    0.9594

 eigenvalue-minimisations  :     0
 total energy-change (2. order) :-0.4540332E+02  (-0.2703490E+02)
 number of electron     116.0000115 magnetization      36.0000088
 augmentation part       32.8311783 magnetization      25.2936062

 Free energy of the ion-electron system (eV)
  ---------------------------------------------------
  alpha Z        PSCENC =       466.11379109
  Ewald energy   TEWEN  =     -6422.67036760
  -Hartree energ DENC   =     -1826.58193185
  -exchange      EXHF   =         0.00000000
  -V(xc)+E(xc)   XCENC  =       213.93994184
  PAW double counting   =     13174.37185619   -13078.89978344
  entropy T*S    EENTRO =        -0.00262311
  eigenvalues    EBANDS =      -285.21908107
  atomic energy  EATOM  =      7657.59362038
  ---------------------------------------------------
  free energy    TOTEN  =      -101.35567326 eV

  energy without entropy =     -101.35305016  energy(sigma->0) =     -101.35436171


--------------------------------------------------------------------------------------------------------




--------------------------------------- Iteration      1(   8)  ---------------------------------------


    POTLOK:  cpu time    0.0108: real time    0.0112
    SETDIJ:  cpu time    0.0050: real time    0.0050
    TRIAL :  cpu time    0.8676: real time    0.8693
    CORREC:  cpu time    0.0014: real time    0.0014
    CHARGE:  cpu time    0.0293: real time    0.0293
    --------------------------------------------
      LOOP:  cpu time    0.9149: real time    0.9258

 eigenvalue-minimisations  :     0
 total energy-change (2. order) :-0.1849536E+02  (-0.3287317E+02)
 number of electron     116.0000105 magnetization      36.0000076
 augmentation part       31.4065259 magnetization      23.3678750

 Free energy of the ion-electron system (eV)
  ---------------------------------------------------
  alpha Z        PSCENC =       466.11379109
  Ewald energy   TEWEN  =     -6422.67036760
  -Hartree energ DENC   =     -1810.01228092
  -exchange      EXHF   =         0.00000000
  -V(xc)+E(xc)   XCENC  =       211.73629628
  PAW double counting   =     10758.52334599   -10640.84813468
  entropy T*S    EENTRO =        -0.00186110
  eigenvalues    EBANDS =      -340.28467964
  atomic energy  EATOM  =      7657.59362038
  ---------------------------------------------------
  free energy    TOTEN  =      -119.85103220 eV

  energy without entropy =     -119.84917111  energy(sigma->0) =     -119.85010165


--------------------------------------------------------------------------------------------------------




--------------------------------------- Iteration      1(   9)  ---------------------------------------


    POTLOK:  cpu time    0.0104: real time    0.0106
    SETDIJ:  cpu time    0.0147: real time    0.0147
    TRIAL :  cpu time    0.8628: real time    0.8646
    CORREC:  cpu time    0.0021: real time    0.0021
    CHARGE:  cpu time    0.0285: real time    0.0286
    --------------------------------------------
      LOOP:  cpu time    0.9201: real time    0.9304

 eigenvalue-minimisations  :     0
 total energy-change (2. order) :-0.9500279E+01  (-0.6262276E+01)
 number of electron     116.0000112 magnetization      36.0000079
 augmentation part       32.2159588 magnetization      23.8124984

 Free energy of the ion-electron system (eV)
  ---------------------------------------------------
  alpha Z        PSCENC =       466.11379109
  Ewald energy   TEWEN  =     -6422.67036760
  -Hartree energ DENC   =     -1900.86801357
  -exchange      EXHF   =         0.00000000
  -V(xc)+E(xc)   XCENC  =       217.29211114
  PAW double counting   =      9135.25852833    -8979.88499358
  entropy T*S    EENTRO =        -0.00180594
  eigenvalues    EBANDS =      -302.18412594
  atomic energy  EATOM  =      7657.59362038
  ---------------------------------------------------
  free energy    TOTEN  =      -129.35131084 eV

  energy without entropy =     -129.34950490  energy(sigma->0) =     -129.35040787


--------------------------------------------------------------------------------------------------------




--------------------------------------- Iteration      1(  10)  ---------------------------------------


    POTLOK:  cpu time    0.0111: real time    0.0112
    SETDIJ:  cpu time    0.0047: real time    0.0047
    TRIAL :  cpu time    0.8685: real time    0.8703
    CORREC:  cpu time    0.0015: real time    0.0015
    CHARGE:  cpu time    0.0279: real time    0.0280
    --------------------------------------------
      LOOP:  cpu time    0.9143: real time    0.9258

 eigenvalue-minimisations  :     0
 total energy-change (2. order) :-0.4034763E+01  (-0.3469265E+01)
 number of electron     116.0000119 magnetization      36.0000083
 augmentation part       32.8801468 magnetization      24.3747604

 Free energy of the ion-electron system (eV)
  ---------------------------------------------------
  alpha Z        PSCENC =       466.11379109
  Ewald energy   TEWEN  =     -6422.67036760
  -Hartree energ DENC   =     -1932.94063873
  -exchange      EXHF   =         0.00000000
  -V(xc)+E(xc)   XCENC  =       218.87144432
  PAW double counting   =      9262.37462315    -9116.10251591
  entropy T*S    EENTRO =        -0.00235938
  eigenvalues    EBANDS =      -266.62422489
  atomic energy  EATOM  =      7657.59362038
  ---------------------------------------------------
  free energy    TOTEN  =      -133.38607414 eV

  energy without entropy =     -133.38371476  energy(sigma->0) =     -133.38489445


--------------------------------------------------------------------------------------------------------




--------------------------------------- Iteration      1(  11)  ---------------------------------------


    POTLOK:  cpu time    0.0107: real time    0.0107
    SETDIJ:  cpu time    0.0058: real time    0.0058
    TRIAL :  cpu time    0.8630: real time    0.8646
    CORREC:  cpu time    0.0014: real time    0.0014
    CHARGE:  cpu time    0.0282: real time    0.0282
    --------------------------------------------
      LOOP:  cpu time    0.9101: real time    0.9210

 eigenvalue-minimisations  :     0
 total energy-change (2. order) :-0.8647262E+00  (-0.1463103E+01)
 number of electron     116.0000117 magnetization      36.0000081
 augmentation part       32.5355787 magnetization      24.0697597

 Free energy of the ion-electron system (eV)
  ---------------------------------------------------
  alpha Z        PSCENC =       466.11379109
  Ewald energy   TEWEN  =     -6422.67036760
  -Hartree energ DENC   =     -1913.53325968
  -exchange      EXHF   =         0.00000000
  -V(xc)+E(xc)   XCENC  =       216.96880201
  PAW double counting   =      9595.30202310    -9460.32378621
  entropy T*S    EENTRO =        -0.00212927
  eigenvalues    EBANDS =      -273.69926408
  atomic energy  EATOM  =      7657.59362038
  ---------------------------------------------------
  free energy    TOTEN  =      -134.25080037 eV

  energy without entropy =     -134.24867110  energy(sigma->0) =     -134.24973573


--------------------------------------------------------------------------------------------------------




--------------------------------------- Iteration      1(  12)  ---------------------------------------


    POTLOK:  cpu time    0.0111: real time    0.0111
    SETDIJ:  cpu time    0.0054: real time    0.0054
    TRIAL :  cpu time    0.8603: real time    0.8621
    CORREC:  cpu time    0.0015: real time    0.0015
    CHARGE:  cpu time    0.0279: real time    0.0279
    --------------------------------------------
      LOOP:  cpu time    0.9085: real time    0.9181

 eigenvalue-minimisations  :     0
 total energy-change (2. order) :-0.8229014E+00  (-0.3534161E+00)
 number of electron     116.0000116 magnetization      36.0000080
 augmentation part       32.3354400 magnetization      23.8454487

 Free energy of the ion-electron system (eV)
  ---------------------------------------------------
  alpha Z        PSCENC =       466.11379109
  Ewald energy   TEWEN  =     -6422.67036760
  -Hartree energ DENC   =     -1898.84398084
  -exchange      EXHF   =         0.00000000
  -V(xc)+E(xc)   XCENC  =       215.77420389
  PAW double counting   =      9354.80196809    -9213.60511953
  entropy T*S    EENTRO =        -0.00221994
  eigenvalues    EBANDS =      -294.23568803
  atomic energy  EATOM  =      7657.59362038
  ---------------------------------------------------
  free energy    TOTEN  =      -135.07370180 eV

  energy without entropy =     -135.07148186  energy(sigma->0) =     -135.07259183


--------------------------------------------------------------------------------------------------------




--------------------------------------- Iteration      1(  13)  ---------------------------------------


    POTLOK:  cpu time    0.0116: real time    0.0116
    SETDIJ:  cpu time    0.0041: real time    0.0041
    TRIAL :  cpu time    0.8637: real time    0.8654
    CORREC:  cpu time    0.0013: real time    0.0013
    CHARGE:  cpu time    0.0274: real time    0.0275
    --------------------------------------------
      LOOP:  cpu time    0.9100: real time    0.9202

 eigenvalue-minimisations  :     0
 total energy-change (2. order) :-0.5966116E-01  (-0.2446790E+00)
 number of electron     116.0000118 magnetization      36.0000080
 augmentation part       32.5141952 magnetization      23.9730061

 Free energy of the ion-electron system (eV)
  ---------------------------------------------------
  alpha Z        PSCENC =       466.11379109
  Ewald energy   TEWEN  =     -6422.67036760
  -Hartree energ DENC   =     -1901.90147973
  -exchange      EXHF   =         0.00000000
  -V(xc)+E(xc)   XCENC  =       215.90914719
  PAW double counting   =      9183.23485930    -9038.04661998
  entropy T*S    EENTRO =        -0.00231817
  eigenvalues    EBANDS =      -295.36409368
  atomic energy  EATOM  =      7657.59362038
  ---------------------------------------------------
  free energy    TOTEN  =      -135.13336297 eV

  energy without entropy =     -135.13104480  energy(sigma->0) =     -135.13220388


--------------------------------------------------------------------------------------------------------




--------------------------------------- Iteration      1(  14)  ---------------------------------------


    POTLOK:  cpu time    0.0108: real time    0.0108
    SETDIJ:  cpu time    0.0050: real time    0.0050
    TRIAL :  cpu time    0.8639: real time    0.8657
    CORREC:  cpu time    0.0020: real time    0.0020
    CHARGE:  cpu time    0.0274: real time    0.0275
    --------------------------------------------
      LOOP:  cpu time    0.9098: real time    0.9207

 eigenvalue-minimisations  :     0
 total energy-change (2. order) :-0.1250608E+00  (-0.3847516E-01)
 number of electron     116.0000118 magnetization      36.0000081
 augmentation part       32.5864578 magnetization      24.0513013

 Free energy of the ion-electron system (eV)
  ---------------------------------------------------
  alpha Z        PSCENC =       466.11379109
  Ewald energy   TEWEN  =     -6422.67036760
  -Hartree energ DENC   =     -1907.95995423
  -exchange      EXHF   =         0.00000000
  -V(xc)+E(xc)   XCENC  =       216.27434590
  PAW double counting   =      9214.45846396    -9072.00456991
  entropy T*S    EENTRO =        -0.00240981
  eigenvalues    EBANDS =      -287.06143522
  atomic energy  EATOM  =      7657.59362038
  ---------------------------------------------------
  free energy    TOTEN  =      -135.25842380 eV

  energy without entropy =     -135.25601399  energy(sigma->0) =     -135.25721889


--------------------------------------------------------------------------------------------------------




--------------------------------------- Iteration      1(  15)  ---------------------------------------


    POTLOK:  cpu time    0.0107: real time    0.0108
    SETDIJ:  cpu time    0.0051: real time    0.0051
    TRIAL :  cpu time    0.8574: real time    0.8591
    CORREC:  cpu time    0.0015: real time    0.0015
    CHARGE:  cpu time    0.0274: real time    0.0275
    --------------------------------------------
      LOOP:  cpu time    0.9041: real time    0.9143

 eigenvalue-minimisations  :     0
 total energy-change (2. order) :-0.7507083E-02  (-0.3903129E-01)
 number of electron     116.0000117 magnetization      36.0000080
 augmentation part       32.5112156 magnetization      24.0093748

 Free energy of the ion-electron system (eV)
  ---------------------------------------------------
  alpha Z        PSCENC =       466.11379109
  Ewald energy   TEWEN  =     -6422.67036760
  -Hartree energ DENC   =     -1907.56996051
  -exchange      EXHF   =         0.00000000
  -V(xc)+E(xc)   XCENC  =       216.27600778
  PAW double counting   =      9242.89026759    -9101.78466170
  entropy T*S    EENTRO =        -0.00247032
  eigenvalues    EBANDS =      -286.11221809
  atomic energy  EATOM  =      7657.59362038
  ---------------------------------------------------
  free energy    TOTEN  =      -135.26593088 eV

  energy without entropy =     -135.26346057  energy(sigma->0) =     -135.26469572


--------------------------------------------------------------------------------------------------------




--------------------------------------- Iteration      1(  16)  ---------------------------------------


    POTLOK:  cpu time    0.0103: real time    0.0104
    SETDIJ:  cpu time    0.0052: real time    0.0053
    TRIAL :  cpu time    0.8621: real time    0.8637
    CORREC:  cpu time    0.0015: real time    0.0015
    CHARGE:  cpu time    0.0276: real time    0.0277
    --------------------------------------------
      LOOP:  cpu time    0.9078: real time    0.9190

 eigenvalue-minimisations  :     0
 total energy-change (2. order) :-0.1930864E-01  (-0.6188301E-02)
 number of electron     116.0000117 magnetization      36.0000080
 augmentation part       32.4807472 magnetization      23.9922477

 Free energy of the ion-electron system (eV)
  ---------------------------------------------------
  alpha Z        PSCENC =       466.11379109
  Ewald energy   TEWEN  =     -6422.67036760
  -Hartree energ DENC   =     -1904.58174191
  -exchange      EXHF   =         0.00000000
  -V(xc)+E(xc)   XCENC  =       216.11867551
  PAW double counting   =      9213.78961751    -9071.58459424
  entropy T*S    EENTRO =        -0.00249522
  eigenvalues    EBANDS =      -290.06176994
  atomic energy  EATOM  =      7657.59362038
  ---------------------------------------------------
  free energy    TOTEN  =      -135.28523952 eV

  energy without entropy =     -135.28274430  energy(sigma->0) =     -135.28399191


--------------------------------------------------------------------------------------------------------




--------------------------------------- Iteration      1(  17)  ---------------------------------------


    POTLOK:  cpu time    0.0106: real time    0.0110
    SETDIJ:  cpu time    0.0046: real time    0.0046
    TRIAL :  cpu time    0.8586: real time    0.8604
    CORREC:  cpu time    0.0021: real time    0.0021
    CHARGE:  cpu time    0.0275: real time    0.0275
    --------------------------------------------
      LOOP:  cpu time    0.9043: real time    0.9157

 eigenvalue-minimisations  :     0
 total energy-change (2. order) :-0.2263042E-02  (-0.6082931E-02)
 number of electron     116.0000117 magnetization      36.0000080
 augmentation part       32.5070793 magnetization      24.0165153

 Free energy of the ion-electron system (eV)
  ---------------------------------------------------
  alpha Z        PSCENC =       466.11379109
  Ewald energy   TEWEN  =     -6422.67036760
  -Hartree energ DENC   =     -1903.83824563
  -exchange      EXHF   =         0.00000000
  -V(xc)+E(xc)   XCENC  =       216.08540261
  PAW double counting   =      9203.23137696    -9060.56277072
  entropy T*S    EENTRO =        -0.00250931
  eigenvalues    EBANDS =      -291.23781443
  atomic energy  EATOM  =      7657.59362038
  ---------------------------------------------------
  free energy    TOTEN  =      -135.28750256 eV

  energy without entropy =     -135.28499326  energy(sigma->0) =     -135.28624791


--------------------------------------------------------------------------------------------------------




--------------------------------------- Iteration      1(  18)  ---------------------------------------


    POTLOK:  cpu time    0.0114: real time    0.0114
    SETDIJ:  cpu time    0.0045: real time    0.0045
    TRIAL :  cpu time    0.8884: real time    0.8902
    CORREC:  cpu time    0.0014: real time    0.0014
    CHARGE:  cpu time    0.0281: real time    0.0281
    --------------------------------------------
      LOOP:  cpu time    0.9350: real time    0.9452

 eigenvalue-minimisations  :     0
 total energy-change (2. order) :-0.3128524E-02  (-0.1101060E-02)
 number of electron     116.0000117 magnetization      36.0000081
 augmentation part       32.5185759 magnetization      24.0278685

 Free energy of the ion-electron system (eV)
  ---------------------------------------------------
  alpha Z        PSCENC =       466.11379109
  Ewald energy   TEWEN  =     -6422.67036760
  -Hartree energ DENC   =     -1904.81183393
  -exchange      EXHF   =         0.00000000
  -V(xc)+E(xc)   XCENC  =       216.16352341
  PAW double counting   =      9215.54124534    -9073.30008924
  entropy T*S    EENTRO =        -0.00252243
  eigenvalues    EBANDS =      -289.91801123
  atomic energy  EATOM  =      7657.59362038
  ---------------------------------------------------
  free energy    TOTEN  =      -135.29063109 eV

  energy without entropy =     -135.28810865  energy(sigma->0) =     -135.28936987


--------------------------------------------------------------------------------------------------------




--------------------------------------- Iteration      1(  19)  ---------------------------------------


    POTLOK:  cpu time    0.0106: real time    0.0108
    SETDIJ:  cpu time    0.0053: real time    0.0053
    TRIAL :  cpu time    0.8594: real time    0.8612
    CORREC:  cpu time    0.0015: real time    0.0015
    CHARGE:  cpu time    0.0275: real time    0.0275
    --------------------------------------------
      LOOP:  cpu time    0.9050: real time    0.9161

 eigenvalue-minimisations  :     0
 total energy-change (2. order) :-0.4814778E-03  (-0.8157741E-03)
 number of electron     116.0000117 magnetization      36.0000081
 augmentation part       32.5097025 magnetization      24.0224409

 Free energy of the ion-electron system (eV)
  ---------------------------------------------------
  alpha Z        PSCENC =       466.11379109
  Ewald energy   TEWEN  =     -6422.67036760
  -Hartree energ DENC   =     -1905.35715484
  -exchange      EXHF   =         0.00000000
  -V(xc)+E(xc)   XCENC  =       216.21745459
  PAW double counting   =      9219.65275891    -9077.60140968
  entropy T*S    EENTRO =        -0.00252999
  eigenvalues    EBANDS =      -289.23728299
  atomic energy  EATOM  =      7657.59362038
  ---------------------------------------------------
  free energy    TOTEN  =      -135.29111257 eV

  energy without entropy =     -135.28858257  energy(sigma->0) =     -135.28984757


--------------------------------------------------------------------------------------------------------




--------------------------------------- Iteration      1(  20)  ---------------------------------------


    POTLOK:  cpu time    0.0144: real time    0.0147
    SETDIJ:  cpu time    0.0018: real time    0.0018
    TRIAL :  cpu time    0.8735: real time    0.8751
    CORREC:  cpu time    0.0014: real time    0.0014
    CHARGE:  cpu time    0.0278: real time    0.0278
    --------------------------------------------
      LOOP:  cpu time    0.9197: real time    0.9312

 eigenvalue-minimisations  :     0
 total energy-change (2. order) :-0.4244128E-03  (-0.2130525E-03)
 number of electron     116.0000117 magnetization      36.0000081
 augmentation part       32.5047078 magnetization      24.0201075

 Free energy of the ion-electron system (eV)
  ---------------------------------------------------
  alpha Z        PSCENC =       466.11379109
  Ewald energy   TEWEN  =     -6422.67036760
  -Hartree energ DENC   =     -1905.14853409
  -exchange      EXHF   =         0.00000000
  -V(xc)+E(xc)   XCENC  =       216.21390474
  PAW double counting   =      9214.95684573    -9072.77316948
  entropy T*S    EENTRO =        -0.00253363
  eigenvalues    EBANDS =      -289.57509775
  atomic energy  EATOM  =      7657.59362038
  ---------------------------------------------------
  free energy    TOTEN  =      -135.29153698 eV

  energy without entropy =     -135.28900335  energy(sigma->0) =     -135.29027016


--------------------------------------------------------------------------------------------------------




--------------------------------------- Iteration      1(  21)  ---------------------------------------


    POTLOK:  cpu time    0.0158: real time    0.0160
    SETDIJ:  cpu time    0.0021: real time    0.0021
    TRIAL :  cpu time    0.8727: real time    0.8744
    CORREC:  cpu time    0.0015: real time    0.0015
    CHARGE:  cpu time    0.0278: real time    0.0278
    --------------------------------------------
      LOOP:  cpu time    0.9209: real time    0.9315

 eigenvalue-minimisations  :     0
 total energy-change (2. order) :-0.1057793E-03  (-0.1141780E-03)
 number of electron     116.0000117 magnetization      36.0000081
 augmentation part       32.5072908 magnetization      24.0237511

 Free energy of the ion-electron system (eV)
  ---------------------------------------------------
  alpha Z        PSCENC =       466.11379109
  Ewald energy   TEWEN  =     -6422.67036760
  -Hartree energ DENC   =     -1904.88031768
  -exchange      EXHF   =         0.00000000
  -V(xc)+E(xc)   XCENC  =       216.19853877
  PAW double counting   =      9213.34470549    -9071.09272872
  entropy T*S    EENTRO =        -0.00253654
  eigenvalues    EBANDS =      -289.89635085
  atomic energy  EATOM  =      7657.59362038
  ---------------------------------------------------
  free energy    TOTEN  =      -135.29164276 eV

  energy without entropy =     -135.28910622  energy(sigma->0) =     -135.29037449


--------------------------------------------------------------------------------------------------------




--------------------------------------- Iteration      1(  22)  ---------------------------------------


    POTLOK:  cpu time    0.0107: real time    0.0107
    SETDIJ:  cpu time    0.0058: real time    0.0058
    TRIAL :  cpu time    0.8628: real time    0.8645
    CORREC:  cpu time    0.0015: real time    0.0015
    CHARGE:  cpu time    0.0276: real time    0.0277
    --------------------------------------------
      LOOP:  cpu time    0.9093: real time    0.9201

 eigenvalue-minimisations  :     0
 total energy-change (2. order) :-0.6154308E-04  (-0.3993622E-04)
 number of electron     116.0000117 magnetization      36.0000081
 augmentation part       32.5090295 magnetization      24.0260699

 Free energy of the ion-electron system (eV)
  ---------------------------------------------------
  alpha Z        PSCENC =       466.11379109
  Ewald energy   TEWEN  =     -6422.67036760
  -Hartree energ DENC   =     -1904.87993349
  -exchange      EXHF   =         0.00000000
  -V(xc)+E(xc)   XCENC  =       216.20111781
  PAW double counting   =      9215.51398578    -9073.30915964
  entropy T*S    EENTRO =        -0.00253894
  eigenvalues    EBANDS =      -289.85222208
  atomic energy  EATOM  =      7657.59362038
  ---------------------------------------------------
  free energy    TOTEN  =      -135.29170430 eV

  energy without entropy =     -135.28916536  energy(sigma->0) =     -135.29043483


--------------------------------------------------------------------------------------------------------




--------------------------------------- Iteration      1(  23)  ---------------------------------------


    POTLOK:  cpu time    0.0105: real time    0.0105
    SETDIJ:  cpu time    0.0056: real time    0.0056
    TRIAL :  cpu time    0.8633: real time    0.8649
    CORREC:  cpu time    0.0015: real time    0.0015
    CHARGE:  cpu time    0.0278: real time    0.0278
    --------------------------------------------
      LOOP:  cpu time    0.9093: real time    0.9198

 eigenvalue-minimisations  :     0
 total energy-change (2. order) :-0.2342266E-04  (-0.1930262E-04)
 number of electron     116.0000117 magnetization      36.0000081
 augmentation part       32.5084408 magnetization      24.0259470

 Free energy of the ion-electron system (eV)
  ---------------------------------------------------
  alpha Z        PSCENC =       466.11379109
  Ewald energy   TEWEN  =     -6422.67036760
  -Hartree energ DENC   =     -1904.97336829
  -exchange      EXHF   =         0.00000000
  -V(xc)+E(xc)   XCENC  =       216.21106235
  PAW double counting   =      9216.68360484    -9074.50488844
  entropy T*S    EENTRO =        -0.00254038
  eigenvalues    EBANDS =      -289.74264313
  atomic energy  EATOM  =      7657.59362038
  ---------------------------------------------------
  free energy    TOTEN  =      -135.29172772 eV

  energy without entropy =     -135.28918734  energy(sigma->0) =     -135.29045753


--------------------------------------------------------------------------------------------------------




--------------------------------------- Iteration      1(  24)  ---------------------------------------


    POTLOK:  cpu time    0.0105: real time    0.0105
    SETDIJ:  cpu time    0.0053: real time    0.0053
    TRIAL :  cpu time    0.8540: real time    0.8555
    CORREC:  cpu time    0.0015: real time    0.0015
    CHARGE:  cpu time    0.0271: real time    0.0272
    --------------------------------------------
      LOOP:  cpu time    0.9012: real time    0.9103

 eigenvalue-minimisations  :     0
 total energy-change (2. order) :-0.1119833E-04  (-0.8763022E-05)
 number of electron     116.0000117 magnetization      36.0000081
 augmentation part       32.5079484 magnetization      24.0257406

 Free energy of the ion-electron system (eV)
  ---------------------------------------------------
  alpha Z        PSCENC =       466.11379109
  Ewald energy   TEWEN  =     -6422.67036760
  -Hartree energ DENC   =     -1905.01098534
  -exchange      EXHF   =         0.00000000
  -V(xc)+E(xc)   XCENC  =       216.21573995
  PAW double counting   =      9216.36847435    -9074.17691636
  entropy T*S    EENTRO =        -0.00254126
  eigenvalues    EBANDS =      -289.72255502
  atomic energy  EATOM  =      7657.59362038
  ---------------------------------------------------
  free energy    TOTEN  =      -135.29173892 eV

  energy without entropy =     -135.28919766  energy(sigma->0) =     -135.29046829


--------------------------------------------------------------------------------------------------------




--------------------------------------- Iteration      1(  25)  ---------------------------------------


    POTLOK:  cpu time    0.0106: real time    0.0106
    SETDIJ:  cpu time    0.0048: real time    0.0048
    TRIAL :  cpu time    0.8572: real time    0.8589
    CORREC:  cpu time    0.0015: real time    0.0015
    EDDIAG:  cpu time    0.3915: real time    0.3924
    CHARGE:  cpu time    0.0273: real time    0.0273
    --------------------------------------------
      LOOP:  cpu time    1.2952: real time    1.3056

 eigenvalue-minimisations  :     0
 total energy-change (2. order) :-0.6086018E-05  (-0.4806474E-05)
 number of electron     116.0000117 magnetization      36.0000081
[...]
     58       7.3280      0.00000
     59       7.4715      0.00000
     60       7.4715      0.00000
     61       7.5419      0.00000
     62       7.5419      0.00000
     63       7.7270      0.00000
     64       7.7270      0.00000
     65       7.8483      0.00000
     66       7.8483      0.00000
     67       7.9656      0.00000
     68       7.9656      0.00000
     69       7.9845      0.00000
     70       7.9845      0.00000
     71       8.0341      0.00000
     72       8.0341      0.00000
     73       8.0617      0.00000
     74       8.0617      0.00000
     75       8.1678      0.00000
     76       8.1678      0.00000
     77       8.2707      0.00000
     78       8.2707      0.00000
     79       8.3842      0.00000
     80       8.3842      0.00000
     81       9.7118      0.00000
     82       9.7119      0.00000
     83       9.9778      0.00000
     84       9.9778      0.00000
     85      11.3425      0.00000
     86      11.3661      0.00000
     87      12.6499      0.00000
     88      12.6977      0.00000
     89      13.2013      0.00000
     90      13.8438      0.00000

 k-point    40 :       0.4444    0.5000    0.3333
  band No.  band energies     occupation 
      1     -14.4626      1.00000
      2     -14.4626      1.00000
      3     -14.2689      1.00000
      4     -14.2689      1.00000
      5     -13.9235      1.00000
      6     -13.9235      1.00000
      7     -13.9046      1.00000
      8     -13.9046      1.00000
      9     -13.6075      1.00000
     10     -13.6075      1.00000
     11      -2.5231      1.00000
     12      -2.5231      1.00000
     13      -2.0416      1.00000
     14      -2.0416      1.00000
     15      -1.8286      1.00000
     16      -1.8286      1.00000
     17      -1.3704      1.00000
     18      -1.3704      1.00000
     19      -0.8191      1.00000
     20      -0.8191      1.00000
     21      -0.6083      1.00000
     22      -0.6083      1.00000
     23      -0.4127      1.00000
     24      -0.4127      1.00000
     25      -0.0408      1.00000
     26      -0.0408      1.00000
     27       0.0597      1.00000
     28       0.0597      1.00000
     29       0.1651      1.00000
     30       0.1651      1.00000
     31       0.7009      1.00000
     32       0.7009      1.00000
     33       0.8711      1.00000
     34       0.8711      1.00000
     35       1.1186      1.00000
     36       1.1186      1.00000
     37       1.5965      1.00000
     38       1.5965      1.00000
     39       2.1047      1.00000
     40       2.1047      1.00000
     41       5.6742      0.00000
     42       5.6742      0.00000
     43       6.2434      0.00000
     44       6.2434      0.00000
     45       6.4182      0.00000
     46       6.4182      0.00000
     47       6.6375      0.00000
     48       6.6375      0.00000
     49       6.9412      0.00000
     50       6.9412      0.00000
     51       6.9820      0.00000
     52       6.9820      0.00000
     53       7.0614      0.00000
     54       7.0614      0.00000
     55       7.1764      0.00000
     56       7.1764      0.00000
     57       7.3893      0.00000
     58       7.3893      0.00000
     59       7.5525      0.00000
     60       7.5525      0.00000
     61       7.5734      0.00000
     62       7.5734      0.00000
     63       7.7056      0.00000
     64       7.7056      0.00000
     65       7.9036      0.00000
     66       7.9036      0.00000
     67       7.9363      0.00000
     68       7.9363      0.00000
     69       8.0332      0.00000
     70       8.0332      0.00000
     71       8.0523      0.00000
     72       8.0523      0.00000
     73       8.0703      0.00000
     74       8.0703      0.00000
     75       8.1423      0.00000
     76       8.1423      0.00000
     77       8.2164      0.00000
     78       8.2164      0.00000
     79       8.4694      0.00000
     80       8.4694      0.00000
     81      10.0278      0.00000
     82      10.0304      0.00000
     83      10.2906      0.00000
     84      10.2962      0.00000
     85      11.6197      0.00000
     86      11.6271      0.00000
     87      11.8989      0.00000
     88      12.1769      0.00000
     89      12.7208      0.00000
     90      14.1108      0.00000


--------------------------------------------------------------------------------------------------------


 soft charge-density along one line, spin component           1
         0         1         2         3         4         5         6         7         8         9
 total charge-density along one line
 
 soft charge-density along one line, spin component           2
         0         1         2         3         4         5         6         7         8         9
 total charge-density along one line
 
 pseudopotential strength for first ion, spin component:           1
 -9.834  -0.000  -0.000   0.067  -0.000 -10.386  -0.000  -0.000
 -0.000  -9.495  -0.079   0.000   0.351  -0.000 -10.045  -0.083
 -0.000  -0.079  -9.532  -0.000  -0.295  -0.000  -0.083 -10.083
  0.067   0.000  -0.000  -9.746  -0.000   0.067   0.000  -0.000
 -0.000   0.351  -0.295  -0.000  -8.758  -0.000   0.361  -0.304
-10.386  -0.000  -0.000   0.067  -0.000 -10.923  -0.000  -0.000
 -0.000 -10.045  -0.083   0.000   0.361  -0.000 -10.580  -0.087
 -0.000  -0.083 -10.083  -0.000  -0.304  -0.000  -0.087 -10.619
  0.067   0.000  -0.000 -10.299  -0.000   0.067   0.000  -0.000
 -0.000   0.361  -0.304  -0.000  -9.284  -0.000   0.374  -0.315
 -0.000  -0.007  -0.013   0.000   0.008  -0.000  -0.006  -0.012
 -0.000  -0.013  -0.024   0.000   0.016  -0.000  -0.012  -0.023
 -0.000  -0.009   0.001   0.000  -0.001  -0.000  -0.009   0.001
  0.000   0.002  -0.010  -0.000  -0.002   0.000   0.001  -0.011
 -0.001   0.000   0.000  -0.013  -0.000  -0.001   0.000   0.000
 -0.000  -0.010   0.004   0.000   0.001  -0.000  -0.010   0.004
  0.000   0.004  -0.010  -0.000  -0.003   0.000   0.003  -0.010
 -0.003   0.000   0.000  -0.015  -0.000  -0.003   0.000   0.000
 pseudopotential strength for first ion, spin component:           2
 -4.598  -0.000  -0.000   0.009  -0.000  -5.117  -0.000  -0.000
 -0.000  -4.664   0.006   0.000  -0.302  -0.000  -5.188   0.004
 -0.000   0.006  -4.643  -0.000   0.281  -0.000   0.004  -5.167
  0.009   0.000  -0.000  -4.557  -0.000   0.008   0.000  -0.000
 -0.000  -0.302   0.281  -0.000  -5.304  -0.000  -0.304   0.283
 -5.117  -0.000  -0.000   0.008  -0.000  -5.602  -0.000  -0.000
 -0.000  -5.188   0.004   0.000  -0.304  -0.000  -5.679   0.002
 -0.000   0.004  -5.167  -0.000   0.283  -0.000   0.002  -5.657
  0.008   0.000  -0.000  -5.077  -0.000   0.006   0.000  -0.000
 -0.000  -0.304   0.283  -0.000  -5.830  -0.000  -0.308   0.286
 -0.000  -0.035  -0.045   0.000   0.031  -0.000  -0.035  -0.045
 -0.000  -0.070  -0.089   0.000   0.060  -0.000  -0.070  -0.089
 -0.000  -0.010  -0.017   0.000  -0.006  -0.000  -0.010  -0.017
  0.000  -0.014  -0.017  -0.000   0.006   0.000  -0.014  -0.017
  0.010   0.000   0.000   0.002  -0.000   0.010   0.000   0.000
 -0.000  -0.011  -0.019   0.000  -0.006  -0.000  -0.011  -0.019
  0.000  -0.016  -0.018  -0.000   0.007   0.000  -0.016  -0.018
  0.011   0.000   0.000   0.002  -0.000   0.011   0.000   0.000
 total augmentation occupancy for first ion, spin component:           1
  7.147   0.000  -0.000  -0.078   0.000  -5.012  -0.000   0.000  -0.013  -0.000   0.000  -0.000   0.000   0.000   0.266  -0.000
  0.000   7.613   1.473   0.000  -0.706  -0.000  -5.800  -1.312  -0.000   0.099   0.572  -0.024  -0.031  -0.431   0.000  -0.015
 -0.000   1.473   7.940   0.000   0.299   0.000  -1.309  -6.096  -0.000   0.286   0.667  -0.060  -0.488  -0.212  -0.000   0.017
 -0.078   0.000   0.000   7.279   0.000  -0.013  -0.000  -0.000  -5.209  -0.000   0.000   0.000   0.000  -0.000   0.452  -0.000
  0.000  -0.706   0.299   0.000   4.801  -0.000   0.087   0.286  -0.000  -4.491  -0.681   0.090  -0.085   0.188   0.000   0.006
 -5.012  -0.000   0.000  -0.013  -0.000   4.059   0.000  -0.000   0.094  -0.000  -0.000   0.000  -0.000  -0.000  -0.279   0.000
 -0.000  -5.800  -1.309  -0.000   0.087   0.000   5.133   1.198   0.000   0.413  -0.577   0.048   0.039   0.430  -0.000   0.006
  0.000  -1.312  -6.096  -0.000   0.286  -0.000   1.198   5.401   0.000  -0.773  -0.667   0.071   0.494   0.227   0.000  -0.030
 -0.013  -0.000  -0.000  -5.209  -0.000   0.094   0.000   0.000   4.312   0.000  -0.000   0.000  -0.000   0.000  -0.460   0.000
 -0.000   0.099   0.286  -0.000  -4.491  -0.000   0.413  -0.773   0.000   5.046   0.716  -0.106   0.099  -0.205  -0.000  -0.010
  0.000   0.572   0.667   0.000  -0.681  -0.000  -0.577  -0.667  -0.000   0.716   2.151  -0.313  -0.053  -0.018  -0.000   0.005
 -0.000  -0.024  -0.060   0.000   0.090   0.000   0.048   0.071   0.000  -0.106  -0.313   0.064   0.007   0.005   0.000  -0.001
  0.000  -0.031  -0.488   0.000  -0.085  -0.000   0.039   0.494  -0.000   0.099  -0.053   0.007   0.238  -0.035   0.000  -0.020
  0.000  -0.431  -0.212  -0.000   0.188  -0.000   0.430   0.227   0.000  -0.205  -0.018   0.005  -0.035   0.209   0.000   0.004
  0.266   0.000  -0.000   0.452   0.000  -0.279  -0.000   0.000  -0.460  -0.000  -0.000   0.000   0.000   0.000   0.326  -0.000
 -0.000  -0.015   0.017  -0.000   0.006   0.000   0.006  -0.030   0.000  -0.010   0.005  -0.001  -0.020   0.004  -0.000   0.002
  0.000   0.013  -0.008  -0.000  -0.017  -0.000  -0.025  -0.007  -0.000   0.020  -0.001  -0.001   0.004  -0.018  -0.000  -0.000
 -0.016  -0.000   0.000  -0.047  -0.000   0.022   0.000  -0.000   0.045   0.000   0.000  -0.000  -0.000  -0.000  -0.029   0.000
 total augmentation occupancy for first ion, spin component:           2
  6.183   0.000  -0.000  -0.259   0.000  -3.753  -0.000   0.000   0.193  -0.000  -0.000   0.000   0.000   0.000   0.069   0.000
  0.000   5.960   1.212   0.000  -1.447  -0.000  -3.687  -0.996  -0.000   1.049   0.159   0.051  -0.029  -0.196  -0.000  -0.018
 -0.000   1.212   6.163   0.000   1.226   0.000  -0.989  -3.854  -0.000  -0.851   0.169   0.029  -0.205  -0.066  -0.000  -0.015
 -0.259   0.000   0.000   6.098  -0.000   0.195  -0.000  -0.000  -3.703   0.000   0.000   0.000   0.000  -0.000   0.143  -0.000
  0.000  -1.447   1.226  -0.000   1.560  -0.000   1.029  -0.851   0.000  -0.414  -0.054  -0.028  -0.024   0.041   0.000  -0.003
 -3.753  -0.000   0.000   0.195  -0.000   2.404   0.000  -0.000  -0.143   0.000   0.000  -0.000  -0.000  -0.000  -0.042  -0.000
 -0.000  -3.687  -0.989  -0.000   1.029   0.000   2.393   0.806   0.000  -0.820  -0.096  -0.036   0.026   0.134   0.000   0.011
  0.000  -0.996  -3.854  -0.000  -0.851  -0.000   0.806   2.540   0.000   0.645  -0.113  -0.025   0.142   0.047   0.000   0.009
  0.193  -0.000  -0.000  -3.703   0.000  -0.143   0.000   0.000   2.379  -0.000  -0.000  -0.000   0.000   0.000  -0.087   0.000
 -0.000   1.049  -0.851   0.000  -0.414   0.000  -0.820   0.645  -0.000  -0.167   0.020   0.022   0.016  -0.022  -0.000   0.002
 -0.000   0.159   0.169   0.000  -0.054   0.000  -0.096  -0.113  -0.000   0.020  -0.193   0.108  -0.006  -0.005  -0.000  -0.001
  0.000   0.051   0.029   0.000  -0.028  -0.000  -0.036  -0.025  -0.000   0.022   0.108  -0.019  -0.002   0.000  -0.000  -0.000
  0.000  -0.029  -0.205   0.000  -0.024  -0.000   0.026   0.142   0.000   0.016  -0.006  -0.002   0.020   0.003   0.000   0.001
  0.000  -0.196  -0.066  -0.000   0.041  -0.000   0.134   0.047   0.000  -0.022  -0.005   0.000   0.003   0.017   0.000   0.000
  0.069  -0.000  -0.000   0.143   0.000  -0.042   0.000   0.000  -0.087  -0.000  -0.000  -0.000   0.000   0.000   0.021   0.000
  0.000  -0.018  -0.015  -0.000  -0.003  -0.000   0.011   0.009   0.000   0.002  -0.001  -0.000   0.001   0.000   0.000  -0.000
  0.000  -0.013  -0.028  -0.000  -0.000  -0.000   0.008   0.017   0.000   0.000  -0.001  -0.000   0.001   0.001   0.000   0.000
  0.006  -0.000  -0.000  -0.016   0.000  -0.003   0.000   0.000   0.010  -0.000  -0.000  -0.000   0.000   0.000  -0.000  -0.000


------------------------ aborting loop because EDIFF is reached ----------------------------------------


    FORLOC:  cpu time    0.0021: real time    0.0021
    FORNL :  cpu time    0.4227: real time    0.4238
    STRESS:  cpu time    0.6150: real time    0.6164
    FORCOR:  cpu time    0.0105: real time    0.0106
    OFIELD:  cpu time    0.0000: real time    0.0000

  FORCE on cell =-STRESS in cart. coord.  units (eV):
  Direction    XX          YY          ZZ          XY          YZ          ZX
  --------------------------------------------------------------------------------------
  Alpha Z   466.11379   466.11379   466.11379
  Ewald   -1716.21473 -2276.05693 -2430.41617    -0.00000    -0.00000     0.00000
  Hartree   837.98202   603.77511   463.22928    -0.00000    -0.00000    -0.00000
  E(xc)    -575.10123  -574.85219  -575.49967     0.00000    -0.00000     0.00000
  Local    -739.55767    30.57132   322.83727    -0.00000     0.00000    -0.00000
  n-local  -403.31044  -417.88053  -416.45133    -0.06872     0.05493     0.02185
  augment   313.40183   316.87236   320.73863    -0.00000     0.00000    -0.00000
  Kinetic  1814.24942  1850.18587  1848.08017    -0.38808    -0.17721    -0.03632
  Fock        0.00000     0.00000     0.00000     0.00000     0.00000     0.00000
  -------------------------------------------------------------------------------------
  Total      -2.43700    -1.27120    -1.36802    -0.00000    -0.00000    -0.00000
  in kB     -18.18963    -9.48818   -10.21088    -0.00000    -0.00000    -0.00000
  external pressure =      -12.63 kB  Pullay stress =        0.00 kB


 VOLUME and BASIS-vectors are now :
 -----------------------------------------------------------------------------
  energy-cutoff  :      520.00
  volume of cell :      214.66
      direct lattice vectors                 reciprocal lattice vectors
     3.716899580  0.000000000  0.000000000     0.269041436 -0.000000000  0.000000000
     0.000000000  5.407758681  0.000000000     0.000000000  0.184919494  0.000000000
     0.000000000  0.000000000 10.679309330    -0.000000000 -0.000000000  0.093639014

  length of vectors
     3.716899580  5.407758681 10.679309330     0.269041436  0.184919494  0.093639014


 FORCES acting on ions:
    Electron-Ion                     Ewald-Force                    Non-Local-Force
 -----------------------------------------------------------------------------------------------
   0.962E-13 -.342E+02 -.363E+02   -.644E-13 0.340E+02 0.376E+02   0.688E-16 0.411E+00 -.120E+01
   0.151E-12 0.342E+02 0.363E+02   0.520E-13 -.340E+02 -.376E+02   -.685E-16 -.411E+00 0.120E+01
   0.149E-12 0.342E+02 -.363E+02   0.425E-13 -.340E+02 0.376E+02   -.692E-16 -.411E+00 -.120E+01
   0.865E-13 -.342E+02 0.363E+02   -.567E-13 0.340E+02 -.376E+02   0.678E-16 0.411E+00 0.120E+01
   -.376E-13 0.698E+02 0.649E+02   0.159E-13 -.664E+02 -.635E+02   -.581E-15 -.349E+01 -.144E+01
   0.311E-13 -.698E+02 -.649E+02   -.575E-14 0.664E+02 0.635E+02   0.580E-15 0.349E+01 0.144E+01
   -.135E-13 0.698E+02 -.649E+02   0.592E-14 -.664E+02 0.635E+02   -.580E-15 -.349E+01 0.144E+01
   0.998E-14 -.698E+02 0.649E+02   -.214E-14 0.664E+02 -.635E+02   0.581E-15 0.349E+01 -.144E+01
   0.153E-12 -.537E-12 -.234E-11   -.354E-14 -.284E-13 -.284E-13   0.490E-22 0.114E-21 0.758E-22
   0.110E-12 -.285E+02 0.283E+02   0.342E-13 0.316E+02 -.288E+02   -.506E-15 -.305E+01 0.501E+00
   0.139E-12 -.285E+02 -.283E+02   0.326E-13 0.316E+02 0.288E+02   -.500E-15 -.305E+01 -.501E+00
   0.153E-12 0.285E+02 0.283E+02   -.378E-13 -.316E+02 -.288E+02   0.502E-15 0.305E+01 0.501E+00
   -.302E-13 0.175E+02 -.374E+02   -.231E-13 -.154E+02 0.372E+02   -.357E-15 -.214E+01 0.216E+00
   0.437E-14 -.175E+02 0.374E+02   0.232E-13 0.154E+02 -.372E+02   0.360E-15 0.214E+01 -.216E+00
   0.167E-12 0.285E+02 -.283E+02   -.303E-13 -.316E+02 0.288E+02   0.500E-15 0.305E+01 -.501E+00
   -.593E-14 -.175E+02 -.374E+02   0.215E-13 0.154E+02 0.372E+02   0.358E-15 0.214E+01 0.216E+00
   0.149E-12 -.881E-12 0.677E-12   0.910E-15 -.204E-13 0.426E-13   -.628E-22 -.114E-21 0.636E-22
   -.305E-13 0.175E+02 0.374E+02   -.910E-14 -.154E+02 -.372E+02   -.362E-15 -.214E+01 -.216E+00
 -----------------------------------------------------------------------------------------------
   0.132E-11 0.426E-11 0.652E-12   -.402E-14 -.497E-13 0.924E-13   -.606E-17 0.000E+00 -.250E-15
 
 
 POSITION                                       TOTAL-FORCE (eV/Angst)
 -----------------------------------------------------------------------------------
      1.85845      3.95701      1.41801        -0.000000     -0.036676     -0.014671
      1.85845      1.45075      9.26130         0.000000      0.036676      0.014671
      1.85845      4.15462      6.75767         0.000000      0.036676     -0.014671
      1.85845      1.25313      3.92164        -0.000000     -0.036676      0.014671
      0.00000      4.07194      4.24253         0.000000      0.043202      0.023864
      0.00000      1.33582      6.43678        -0.000000     -0.043202     -0.023864
      0.00000      1.36806      1.09712         0.000000      0.043202     -0.023864
      0.00000      4.03970      9.58218        -0.000000     -0.043202      0.023864
      1.85845      0.00000      0.00000         0.000000     -0.000000      0.000000
      1.85845      3.36377      8.67258         0.000000      0.003369      0.011692
      1.85845      0.65989      7.34639         0.000000      0.003369     -0.011692
      1.85845      4.74787      3.33292        -0.000000     -0.003369      0.011692
      0.00000      4.40249      6.36703         0.000000      0.002003     -0.008206
      0.00000      1.00527      4.31227        -0.000000     -0.002003      0.008206
      1.85845      2.04399      2.00673        -0.000000     -0.003369     -0.011692
      0.00000      3.70914      1.02738        -0.000000     -0.002003     -0.008206
      1.85845      2.70388      5.33965         0.000000     -0.000000      0.000000
      0.00000      1.69861      9.65193         0.000000      0.002003      0.008206
 -----------------------------------------------------------------------------------
    total drift:                                0.000000      0.000000      0.000000


--------------------------------------------------------------------------------------------------------



  FREE ENERGIE OF THE ION-ELECTRON SYSTEM (eV)
  ---------------------------------------------------
  free  energy   TOTEN  =      -135.29174501 eV

  energy  without entropy=     -135.28920301  energy(sigma->0) =     -135.29047401
 


--------------------------------------------------------------------------------------------------------


    POTLOK:  cpu time    0.0163: real time    0.0163


--------------------------------------------------------------------------------------------------------


 writing wavefunctions
     LOOP+:  cpu time   34.3588: real time   36.5286
    4ORBIT:  cpu time    0.0000: real time    0.0000

 total amount of memory used by VASP MPI-rank0    84801. kBytes
=======================================================================

   base      :      30000. kBytes
   nonl-proj :      17357. kBytes
   fftplans  :        586. kBytes
   grid      :       1453. kBytes
   one-center:        155. kBytes
   wavefun   :      35250. kBytes
 
  
  
 General timing and accounting informations for this job:
 ========================================================
  
                  Total CPU time used (sec):       38.838
                            User time (sec):       37.652
                          System time (sec):        1.186
                         Elapsed time (sec):       41.648
  
                   Maximum memory used (kb):      200764.
                   Average memory used (kb):           0.
  
                          Minor page faults:       103019
                          Major page faults:            0
                 Voluntary context switches:         8625
