<?xml version="1.0" encoding="ISO-8859-1"?>
<modeling>
 <generator>
  <i name="program" type="string">vasp </i>
  <i name="version" type="string">6.1.0  </i>
  <i name="subversion" type="string">28Jan20 (build Oct 05 2020 22:43:53) complex                          parallel </i>
  <i name="platform" type="string">LinuxIFC </i>
  <i name="date" type="string">2022 09 16 </i>
  <i name="time" type="string">19:35:39 </i>
 </generator>
 <incar>
  <i type="int" name="ISTART">     0</i>
  <i type="string" name="PREC"> N</i>
  <i type="string" name="ALGO"> D</i>
  <i type="int" name="ISPIN">     2</i>
  <i name="AMIX">      0.20000000</i>
  <i name="BMIX">      0.00001000</i>
  <i name="AMIX_MAG">      0.80000000</i>
  <i name="BMIX_MAG">      0.00001000</i>
  <i type="int" name="ICHARG">     2</i>
  <i type="int" name="NELM">   500</i>
  <i type="int" name="NELMIN">     6</i>
  <i name="EDIFF">      0.00001000</i>
  <i name="ENCUT">    520.00000000</i>
  <v name="MAGMOM">      4.00000000      4.00000000      4.00000000      4.00000000      4.00000000      4.00000000      4.00000000      4.00000000      0.00000000      0.00000000      0.00000000      0.00000000      0.00000000      0.00000000      0.00000000      0.00000000      0.00000000      0.00000000</v>
  <i type="logical" name="LREAL"> F  </i>
  <i type="int" name="ISMEAR">     0</i>
  <i name="SIGMA">      0.05000000</i>
  <i name="KSPACING">      0.20000000</i>
  <i type="int" name="LMAXMIX">     4</i>
  <i type="int" name="KPAR">     2</i>
  <i type="int" name="NCORE">     4</i>
  <i type="string" name="ALGO"> D</i>
  <i type="int" name="NELM">   500</i>
  <i type="string" name="GGA"> PE</i>
  <i type="logical" name="LDAU"> T  </i>
  <v type="int" name="LDAUL">     2     1</v>
  <v name="LDAUU">      3.40000000      0.00000000</v>
  <v name="LDAUJ">      0.00000000      0.00000000</v>
  <i name="EDIFF">      0.00001000</i>
  <i type="int" name="ISPIN">     2</i>
 </incar>
 <structure name="primitive_cell" >
  <crystal>
   <varray name="basis" >
    <v>       3.71689958       0.00000000       0.00000000 </v>
    <v>       0.00000000       5.40775868       0.00000000 </v>
    <v>       0.00000000       0.00000000      10.67930933 </v>
   </varray>
   <i name="volume">    214.65514242 </i>
   <varray name="rec_basis" >
    <v>       0.26904144      -0.00000000       0.00000000 </v>
    <v>       0.00000000       0.18491949       0.00000000 </v>
    <v>      -0.00000000      -0.00000000       0.09363901 </v>
   </varray>
  </crystal>
  <varray name="positions" >
   <v>       0.50000000       0.73172892       0.13278115 </v>
   <v>       0.50000000       0.26827108       0.86721885 </v>
   <v>       0.50000000       0.76827108       0.63278115 </v>
   <v>       0.50000000       0.23172892       0.36721885 </v>
   <v>       0.00000000       0.75298100       0.39726632 </v>
   <v>       1.00000000       0.24701900       0.60273368 </v>
   <v>       0.00000000       0.25298100       0.10273368 </v>
   <v>       0.00000000       0.74701900       0.89726632 </v>
   <v>       0.50000000       0.00000000       0.00000000 </v>
   <v>       0.50000000       0.62202663       0.81209167 </v>
   <v>       0.50000000       0.12202663       0.68790833 </v>
   <v>       0.50000000       0.87797337       0.31209167 </v>
   <v>       1.00000000       0.81410690       0.59620283 </v>
   <v>       1.00000000       0.18589310       0.40379717 </v>
   <v>       0.50000000       0.37797337       0.18790833 </v>
   <v>       0.00000000       0.68589310       0.09620283 </v>
   <v>       0.50000000       0.50000000       0.50000000 </v>
   <v>       0.00000000       0.31410690       0.90379717 </v>
  </varray>
 </structure>
 <varray name="primitive_index" >
  <v type="int" >        1 </v>
  <v type="int" >        2 </v>
  <v type="int" >        3 </v>
  <v type="int" >        4 </v>
  <v type="int" >        5 </v>
  <v type="int" >        6 </v>
  <v type="int" >        7 </v>
  <v type="int" >        8 </v>
  <v type="int" >        9 </v>
  <v type="int" >       10 </v>
  <v type="int" >       11 </v>
  <v type="int" >       12 </v>
  <v type="int" >       13 </v>
  <v type="int" >       14 </v>
  <v type="int" >       15 </v>
  <v type="int" >       16 </v>
  <v type="int" >       17 </v>
  <v type="int" >       18 </v>
 </varray>
 <kpoints>
  <generation param="Gamma">
   <v type="int" name="divisions">       9        6        3 </v>
   <v name="usershift">      0.00000000       0.00000000       0.00000000 </v>
   <v name="genvec1">      0.11111111       0.00000000       0.00000000 </v>
   <v name="genvec2">      0.00000000       0.16666667       0.00000000 </v>
   <v name="genvec3">      0.00000000       0.00000000       0.33333333 </v>
   <v name="shift">      0.00000000       0.00000000       0.00000000 </v>
  </generation>
  <varray name="kpointlist" >
   <v>       0.00000000       0.00000000       0.00000000 </v>
   <v>       0.11111111       0.00000000       0.00000000 </v>
   <v>       0.22222222       0.00000000       0.00000000 </v>
   <v>       0.33333333       0.00000000       0.00000000 </v>
   <v>       0.44444444       0.00000000       0.00000000 </v>
   <v>       0.00000000       0.16666667       0.00000000 </v>
   <v>       0.11111111       0.16666667       0.00000000 </v>
   <v>       0.22222222       0.16666667       0.00000000 </v>
   <v>       0.33333333       0.16666667       0.00000000 </v>
   <v>       0.44444444       0.16666667       0.00000000 </v>
   <v>       0.00000000       0.33333333       0.00000000 </v>
   <v>       0.11111111       0.33333333       0.00000000 </v>
   <v>       0.22222222       0.33333333       0.00000000 </v>
   <v>       0.33333333       0.33333333       0.00000000 </v>
   <v>       0.44444444       0.33333333       0.00000000 </v>
   <v>       0.00000000       0.50000000       0.00000000 </v>
   <v>       0.11111111       0.50000000       0.00000000 </v>
   <v>       0.22222222       0.50000000       0.00000000 </v>
   <v>       0.33333333       0.50000000       0.00000000 </v>
   <v>       0.44444444       0.50000000       0.00000000 </v>
   <v>      -0.00000000       0.00000000       0.33333333 </v>
   <v>       0.11111111       0.00000000       0.33333333 </v>
   <v>       0.22222222       0.00000000       0.33333333 </v>
   <v>       0.33333333       0.00000000       0.33333333 </v>
   <v>       0.44444444       0.00000000       0.33333333 </v>
   <v>      -0.00000000       0.16666667       0.33333333 </v>
   <v>       0.11111111       0.16666667       0.33333333 </v>
   <v>       0.22222222       0.16666667       0.33333333 </v>
   <v>       0.33333333       0.16666667       0.33333333 </v>
   <v>       0.44444444       0.16666667       0.33333333 </v>
   <v>      -0.00000000       0.33333333       0.33333333 </v>
   <v>       0.11111111       0.33333333       0.33333333 </v>
   <v>       0.22222222       0.33333333       0.33333333 </v>
   <v>       0.33333333       0.33333333       0.33333333 </v>
   <v>       0.44444444       0.33333333       0.33333333 </v>
   <v>      -0.00000000       0.50000000       0.33333333 </v>
   <v>       0.11111111       0.50000000       0.33333333 </v>
   <v>       0.22222222       0.50000000       0.33333333 </v>
   <v>       0.33333333       0.50000000       0.33333333 </v>
   <v>       0.44444444       0.50000000       0.33333333 </v>
  </varray>
  <varray name="weights" >
   <v>       0.00617284 </v>
   <v>       0.01234568 </v>
   <v>       0.01234568 </v>
   <v>       0.01234568 </v>
   <v>       0.01234568 </v>
   <v>       0.01234568 </v>
   <v>       0.02469136 </v>
   <v>       0.02469136 </v>
   <v>       0.02469136 </v>
   <v>       0.02469136 </v>
   <v>       0.01234568 </v>
   <v>       0.02469136 </v>
   <v>       0.02469136 </v>
   <v>       0.02469136 </v>
   <v>       0.02469136 </v>
   <v>       0.00617284 </v>
   <v>       0.01234568 </v>
   <v>       0.01234568 </v>
   <v>       0.01234568 </v>
   <v>       0.01234568 </v>
   <v>       0.01234568 </v>
   <v>       0.02469136 </v>
   <v>       0.02469136 </v>
   <v>       0.02469136 </v>
   <v>       0.02469136 </v>
   <v>       0.02469136 </v>
   <v>       0.04938272 </v>
   <v>       0.04938272 </v>
   <v>       0.04938272 </v>
   <v>       0.04938272 </v>
   <v>       0.02469136 </v>
   <v>       0.04938272 </v>
   <v>       0.04938272 </v>
   <v>       0.04938272 </v>
   <v>       0.04938272 </v>
   <v>       0.01234568 </v>
   <v>       0.02469136 </v>
   <v>       0.02469136 </v>
   <v>       0.02469136 </v>
   <v>       0.02469136 </v>
  </varray>
 </kpoints>
 <parameters>
  <separator name="general" >
   <i type="string" name="SYSTEM">unknown system</i>
   <i type="logical" name="LCOMPAT"> F  </i>
  </separator>
  <separator name="electronic" >
   <i type="string" name="PREC">n</i>
   <i name="ENMAX">    520.00000000</i>
   <i name="ENAUG">    605.39200000</i>
   <i name="EDIFF">      0.00001000</i>
   <i type="int" name="IALGO">    53</i>
   <i type="int" name="IWAVPR">    10</i>
   <i type="int" name="NBANDS">    90</i>
   <i type="int" name="NBANDSLOW">    -1</i>
   <i type="int" name="NBANDSHIGH">    -1</i>
   <i name="NELECT">    116.00000000</i>
   <i type="int" name="TURBO">     0</i>
   <i type="int" name="IRESTART">     0</i>
   <i type="int" name="NREBOOT">     0</i>
   <i type="int" name="NMIN">     0</i>
   <i name="EREF">      0.00000000</i>
   <separator name="electronic smearing" >
    <i type="int" name="ISMEAR">     0</i>
    <i name="SIGMA">      0.05000000</i>
    <i name="KSPACING">      0.20000000</i>
    <i type="logical" name="KGAMMA"> T  </i>
    <i type="logical" name="KBLOWUP"> T  </i>
   </separator>
   <separator name="electronic projectors" >
    <i type="logical" name="LREAL"> F  </i>
    <v name="ROPT">      0.00000000      0.00000000</v>
    <i type="int" name="LMAXPAW">  -100</i>
    <i type="int" name="LMAXMIX">     4</i>
    <i type="logical" name="NLSPLINE"> F  </i>
   </separator>
   <separator name="electronic startup" >
    <i type="int" name="ISTART">     0</i>
    <i type="int" name="ICHARG">     2</i>
    <i type="int" name="INIWAV">     1</i>
   </separator>
   <separator name="electronic spin" >
    <i type="int" name="ISPIN">     2</i>
    <i type="logical" name="LNONCOLLINEAR"> F  </i>
    <v name="MAGMOM">      4.00000000      4.00000000      4.00000000      4.00000000      4.00000000      4.00000000      4.00000000      4.00000000      0.00000000      0.00000000      0.00000000      0.00000000      0.00000000      0.00000000      0.00000000      0.00000000      0.00000000      0.00000000</v>
    <i name="NUPDOWN">     -1.00000000</i>
    <i type="logical" name="LSORBIT"> F  </i>
    <v name="SAXIS">      0.00000000      0.00000000      1.00000000</v>
    <i type="logical" name="LSPIRAL"> F  </i>
    <v name="QSPIRAL">      0.00000000      0.00000000      0.00000000</v>
    <i type="logical" name="LZEROZ"> F  </i>
   </separator>
   <separator name="electronic exchange-correlation" >
    <i type="logical" name="LASPH"> F  </i>
    <i type="logical" name="LMETAGGA"> F  </i>
   </separator>
   <separator name="electronic convergence" >
    <i type="int" name="NELM">   500</i>
    <i type="int" name="NELMDL">    -5</i>
    <i type="int" name="NELMIN">     6</i>
    <i name="ENINI">    520.00000000</i>
    <separator name="electronic convergence detail" >
     <i type="logical" name="LDIAG"> T  </i>
     <i type="logical" name="LSUBROT"> F  </i>
     <i name="WEIMIN">      0.00000000</i>
     <i name="EBREAK">      0.00000003</i>
     <i name="DEPER">      0.30000000</i>
     <i type="int" name="NRMM">     4</i>
     <i name="TIME">      0.40000000</i>
    </separator>
   </separator>
   <separator name="electronic mixer" >
    <i name="AMIX">      0.20000000</i>
    <i name="BMIX">      0.00001000</i>
    <i name="AMIN">      0.10000000</i>
    <i name="AMIX_MAG">      0.80000000</i>
    <i name="BMIX_MAG">      0.00001000</i>
    <separator name="electronic mixer details" >
     <i type="int" name="IMIX">     4</i>
     <i type="logical" name="MIXFIRST"> F  </i>
     <i type="int" name="MAXMIX">   -45</i>
     <i name="WC">    100.00000000</i>
     <i type="int" name="INIMIX">     1</i>
     <i type="int" name="MIXPRE">     1</i>
     <i type="int" name="MREMOVE">     5</i>
    </separator>
   </separator>
   <separator name="electronic dipolcorrection" >
    <i type="logical" name="LDIPOL"> F  </i>
    <i type="logical" name="LMONO"> F  </i>
    <i type="int" name="IDIPOL">     0</i>
    <i name="EPSILON">      1.00000000</i>
    <v name="DIPOL">   -100.00000000   -100.00000000   -100.00000000</v>
    <i name="EFIELD">      0.00000000</i>
   </separator>
  </separator>
  <separator name="grids" >
   <i type="int" name="NGX">    24</i>
   <i type="int" name="NGY">    30</i>
   <i type="int" name="NGZ">    60</i>
   <i type="int" name="NGXF">    48</i>
   <i type="int" name="NGYF">    60</i>
   <i type="int" name="NGZF">   120</i>
   <i type="logical" name="ADDGRID"> F  </i>
  </separator>
  <separator name="ionic" >
   <i type="int" name="NSW">     0</i>
   <i type="int" name="IBRION">    -1</i>
   <i type="int" name="MDALGO">     0</i>
   <i type="int" name="ISIF">     2</i>
   <i name="PSTRESS">      0.00000000</i>
   <i name="EDIFFG">      0.00010000</i>
   <i type="int" name="NFREE">     0</i>
   <i name="POTIM">      0.50000000</i>
   <i name="SMASS">     -3.00000000</i>
   <i name="SCALEE">      1.00000000</i>
  </separator>
  <separator name="ionic md" >
   <i name="TEBEG">      0.00010000</i>
   <i name="TEEND">      0.00010000</i>
   <i type="int" name="NBLOCK">     1</i>
   <i type="int" name="KBLOCK">     1</i>
   <i type="int" name="NPACO">   256</i>
   <i name="APACO">     16.00000000</i>
  </separator>
  <separator name="symmetry" >
   <i type="int" name="ISYM">     2</i>
   <i name="SYMPREC">      0.00001000</i>
  </separator>
  <separator name="dos" >
   <i type="int" name="LORBIT">     0</i>
   <v name="RWIGS">     -1.00000000     -1.00000000</v>
   <i type="int" name="NEDOS">   301</i>
   <i name="EMIN">     10.00000000</i>
   <i name="EMAX">    -10.00000000</i>
   <i name="EFERMI">      0.00000000</i>
  </separator>
  <separator name="writing" >
   <i type="int" name="NWRITE">     2</i>
   <i type="logical" name="LWAVE"> T  </i>
   <i type="logical" name="LDOWNSAMPLE"> F  </i>
   <i type="logical" name="LCHARG"> T  </i>
   <i type="logical" name="LPARD"> F  </i>
   <i type="logical" name="LVTOT"> F  </i>
   <i type="logical" name="LVHAR"> F  </i>
   <i type="logical" name="LELF"> F  </i>
   <i type="logical" name="LOPTICS"> F  </i>
   <v name="STM">      0.00000000      0.00000000      0.00000000      0.00000000      0.00000000      0.00000000      0.00000000</v>
  </separator>
  <separator name="performance" >
   <i type="int" name="NPAR">    15</i>
   <i type="int" name="NSIM">     4</i>
   <i type="int" name="NBLK">    -1</i>
   <i type="logical" name="LPLANE"> T  </i>
   <i type="logical" name="LSCALAPACK"> T  </i>
   <i type="logical" name="LSCAAWARE"> F  </i>
   <i type="logical" name="LSCALU"> F  </i>
   <i type="logical" name="LASYNC"> F  </i>
   <i type="logical" name="LORBITALREAL"> F  </i>
  </separator>
  <separator name="miscellaneous" >
   <i type="int" name="IDIOT">     3</i>
   <i type="int" name="PHON_NSTRUCT">    -1</i>
   <i type="logical" name="LMUSIC"> F  </i>
   <v name="POMASS">     54.93800000     16.00000000</v>
   <v name="DARWINR">      0.00000000      0.00000000</v>
   <v name="DARWINV">      1.00000000      1.00000000</v>
   <i type="logical" name="LCORR"> T  </i>
  </separator>
  <i type="logical" name="GGA_COMPAT"> T  </i>
  <i type="logical" name="LBERRY"> F  </i>
  <i type="int" name="ICORELEVEL">     0</i>
  <i type="logical" name="LDAU"> T  </i>
  <v type="int" name="LDAUTYPE">     2</v>
  <v type="int" name="LDAUL">     2</v>
  <v name="LDAUU">      3.40000000</v>
  <v name="LDAUJ">      0.00000000</v>
  <i type="int" name="LDAUPRINT">     0</i>
  <i type="int" name="I_CONSTRAINED_M">     0</i>
  <separator name="electronic exchange-correlation" >
   <i type="string" name="GGA">PE</i>
   <i type="int" name="VOSKOWN">     0</i>
   <i type="logical" name="LHFCALC"> F  </i>
   <i type="string" name="PRECFOCK"></i>
   <i type="logical" name="LSYMGRAD"> F  </i>
   <i type="logical" name="LHFONE"> F  </i>
   <i type="logical" name="LRHFCALC"> F  </i>
   <i type="logical" name="LTHOMAS"> F  </i>
   <i type="logical" name="LMODELHF"> F  </i>
   <i type="logical" name="LFOCKACE"> F  </i>
   <i name="ENCUT4O">     -1.00000000</i>
   <i type="int" name="EXXOEP">     0</i>
   <i type="int" name="FOURORBIT">     0</i>
   <i name="AEXX">      0.00000000</i>
   <i name="HFALPHA">      0.00000000</i>
   <i name="MCALPHA">      0.00000000</i>
   <i name="ALDAX">      1.00000000</i>
   <i name="AGGAX">      1.00000000</i>
   <i name="ALDAC">      1.00000000</i>
   <i name="AGGAC">      1.00000000</i>
   <i type="int" name="NKREDX">     1</i>
   <i type="int" name="NKREDY">     1</i>
   <i type="int" name="NKREDZ">     1</i>
   <i type="logical" name="SHIFTRED"> F  </i>
   <i type="logical" name="ODDONLY"> F  </i>
   <i type="logical" name="EVENONLY"> F  </i>
   <i type="int" name="LMAXFOCK">     0</i>
   <i type="int" name="NMAXFOCKAE">     0</i>
   <i type="logical" name="LFOCKAEDFT"> F  </i>
   <i name="HFSCREEN">      0.00000000</i>
   <i name="HFSCREENC">      0.00000000</i>
   <i type="int" name="NBANDSGWLOW">     0</i>
  </separator>
  <separator name="vdW DFT" >
   <i type="logical" name="LUSE_VDW"> F  </i>
   <i name="Zab_VDW">     -0.84910000</i>
   <i name="PARAM1">      0.12340000</i>
   <i name="PARAM2">      1.00000000</i>
   <i name="PARAM3">      0.00000000</i>
  </separator>
  <separator name="model GW" >
   <i type="int" name="MODEL_GW">     0</i>
   <i name="MODEL_EPS0">      7.15517141</i>
   <i name="MODEL_ALPHA">      1.00000000</i>
  </separator>
  <separator name="linear response parameters" >
   <i type="logical" name="LEPSILON"> F  </i>
   <i type="logical" name="LRPA"> F  </i>
   <i type="logical" name="LNABLA"> F  </i>
   <i type="logical" name="LVEL"> F  </i>
   <i type="int" name="KINTER">     0</i>
   <i name="CSHIFT">      0.10000000</i>
   <i name="OMEGAMAX">     -1.00000000</i>
   <i name="DEG_THRESHOLD">      0.00200000</i>
   <i name="RTIME">     -0.10000000</i>
   <i name="WPLASMAI">      0.00000000</i>
   <v name="DFIELD">      0.00000000      0.00000000      0.00000000</v>
   <v name="WPLASMA">      0.00000000      0.00000000      0.00000000      0.00000000      0.00000000      0.00000000      0.00000000      0.00000000      0.00000000</v>
  </separator>
  <separator name="orbital magnetization" >
   <i type="logical" name="NUCIND"> F  </i>
   <v name="MAGPOS">      0.00000000      0.00000000      0.00000000</v>
   <i type="logical" name="LNICSALL"> T  </i>
   <i type="logical" name="ORBITALMAG"> F  </i>
   <i type="logical" name="LMAGBLOCH"> F  </i>
   <i type="logical" name="LCHIMAG"> F  </i>
   <i type="logical" name="LGAUGE"> T  </i>
   <i type="int" name="MAGATOM">     0</i>
   <v name="MAGDIPOL">      0.00000000      0.00000000      0.00000000</v>
   <v name="AVECCONST">      0.00000000      0.00000000      0.00000000</v>
  </separator>
  <separator name="response functions" >
   <i type="logical" name="LFINITE_TEMPERATURE"> F  </i>
   <i type="logical" name="LADDER"> F  </i>
   <i type="logical" name="LRPAFORCE"> F  </i>
   <i type="logical" name="LFXC"> F  </i>
   <i type="logical" name="LHARTREE"> T  </i>
   <i type="int" name="IBSE">     0</i>
   <v type="int" name="KPOINT">    -1     0     0     0</v>
   <i type="logical" name="LTCTC"> F  </i>
   <i type="logical" name="LTCTE"> F  </i>
   <i type="logical" name="LTETE"> F  </i>
   <i type="logical" name="LTRIPLET"> F  </i>
   <i type="logical" name="LFXCEPS"> F  </i>
   <i type="logical" name="LFXHEG"> F  </i>
   <i type="int" name="NATURALO">     2</i>
   <i type="logical" name="LHOLEGF"> F  </i>
   <i type="logical" name="L2ORDER"> F  </i>
   <i type="logical" name="LDMP1"> F  </i>
   <i type="logical" name="LMP2LT"> F  </i>
   <i type="logical" name="LSMP2LT"> F  </i>
   <i type="logical" name="LGWLF"> F  </i>
   <i name="ENCUTGW">     -2.00000000</i>
   <i name="ENCUTGWSOFT">     -2.00000000</i>
   <i name="ENCUTLF">     -1.00000000</i>
   <i type="logical" name="LESF_SPLINES"> F  </i>
   <i type="int" name="LMAXMP2">    -1</i>
   <i name="SCISSOR">      0.00000000</i>
   <i type="int" name="NOMEGA">     0</i>
   <i type="int" name="NOMEGAR">     0</i>
   <i type="int" name="NBANDSGW">    -1</i>
   <i type="int" name="NBANDSO">    -1</i>
   <i type="int" name="NBANDSV">    -1</i>
   <i type="int" name="NELM">   500</i>
   <i type="int" name="NELMHF">     1</i>
   <i type="int" name="DIM">     3</i>
   <i type="int" name="IESPILON">     4</i>
   <i type="int" name="ANTIRES">     0</i>
   <i name="OMEGAMAX">    -30.00000000</i>
   <i name="OMEGAMIN">    -30.00000000</i>
   <i name="OMEGATL">   -200.00000000</i>
   <i type="int" name="OMEGAGRID">     0</i>
   <i name="CSHIFT">     -0.10000000</i>
   <i type="logical" name="LSELFENERGY"> F  </i>
   <i type="logical" name="LSPECTRAL"> F  </i>
   <i type="logical" name="LSPECTRALGW"> F  </i>
   <i type="logical" name="LSINGLES"> F  </i>
   <i type="logical" name="LFERMIGW"> F  </i>
   <i type="logical" name="ODDONLYGW"> F  </i>
   <i type="logical" name="EVENONLYGW"> F  </i>
   <i type="int" name="NKREDLFX">     1</i>
   <i type="int" name="NKREDLFY">     1</i>
   <i type="int" name="NKREDLFZ">     1</i>
   <i type="int" name="MAXMEM">  2800</i>
   <i type="int" name="TELESCOPE">     0</i>
   <i type="int" name="NTAUPAR">    -1</i>
   <i type="int" name="NOMEGAPAR">    -1</i>
   <i name="LAMBDA">      1.00000000</i>
  </separator>
  <separator name="External order field" >
   <i name="OFIELD_KAPPA">      0.00000000</i>
   <v name="OFIELD_K">      0.00000000      0.00000000      0.00000000</v>
   <i name="OFIELD_Q6_NEAR">      0.00000000</i>
   <i name="OFIELD_Q6_FAR">      0.00000000</i>
   <i name="OFIELD_A">      0.00000000</i>
  </separator>
 </parameters>
 <atominfo>
  <atoms>      18 </atoms>
  <types>       2 </types>
  <array name="atoms" >
   <dimension dim="1">ion</dimension>
   <field type="string">element</field>
   <field type="int">atomtype</field>
   <set>
    <rc><c>Mn</c><c>   1</c></rc>
    <rc><c>Mn</c><c>   1</c></rc>
    <rc><c>Mn</c><c>   1</c></rc>
    <rc><c>Mn</c><c>   1</c></rc>
    <rc><c>Mn</c><c>   1</c></rc>
    <rc><c>Mn</c><c>   1</c></rc>
    <rc><c>Mn</c><c>   1</c></rc>
    <rc><c>Mn</c><c>   1</c></rc>
    <rc><c>O </c><c>   2</c></rc>
    <rc><c>O </c><c>   2</c></rc>
    <rc><c>O </c><c>   2</c></rc>
    <rc><c>O </c><c>   2</c></rc>
    <rc><c>O </c><c>   2</c></rc>
    <rc><c>O </c><c>   2</c></rc>
    <rc><c>O </c><c>   2</c></rc>
    <rc><c>O </c><c>   2</c></rc>
    <rc><c>O </c><c>   2</c></rc>
    <rc><c>O </c><c>   2</c></rc>
   </set>
  </array>
  <array name="atomtypes" >
   <dimension dim="1">type</dimension>
   <field type="int">atomspertype</field>
   <field type="string">element</field>
   <field>mass</field>
   <field>valence</field>
   <field type="string">pseudopotential</field>
   <set>
    <rc><c>   8</c><c>Mn</c><c>     54.93800000</c><c>      7.00000000</c><c>  PAW_PBE Mn 06Sep2000                  </c></rc>
    <rc><c>  10</c><c>O </c><c>     16.00000000</c><c>      6.00000000</c><c>  PAW_PBE O 08Apr2002                   </c></rc>
   </set>
  </array>
 </atominfo>
 <structure name="initialpos" >
  <crystal>
   <varray name="basis" >
    <v>       3.71689958       0.00000000       0.00000000 </v>
    <v>       0.00000000       5.40775868       0.00000000 </v>
    <v>       0.00000000       0.00000000      10.67930933 </v>
   </varray>
   <i name="volume">    214.65514242 </i>
   <varray name="rec_basis" >
    <v>       0.26904144      -0.00000000       0.00000000 </v>
    <v>       0.00000000       0.18491949       0.00000000 </v>
    <v>      -0.00000000      -0.00000000       0.09363901 </v>
   </varray>
  </crystal>
  <varray name="positions" >
   <v>       0.50000000       0.73172892       0.13278115 </v>
   <v>       0.50000000       0.26827108       0.86721885 </v>
   <v>       0.50000000       0.76827108       0.63278115 </v>
   <v>       0.50000000       0.23172892       0.36721885 </v>
   <v>       0.00000000       0.75298100       0.39726632 </v>
   <v>       0.00000000       0.24701900       0.60273368 </v>
   <v>       0.00000000       0.25298100       0.10273368 </v>
   <v>       0.00000000       0.74701900       0.89726632 </v>
   <v>       0.50000000       0.00000000       0.00000000 </v>
   <v>       0.50000000       0.62202663       0.81209167 </v>
   <v>       0.50000000       0.12202663       0.68790833 </v>
   <v>       0.50000000       0.87797337       0.31209167 </v>
   <v>       0.00000000       0.81410690       0.59620283 </v>
   <v>       0.00000000       0.18589310       0.40379717 </v>
   <v>       0.50000000       0.37797337       0.18790833 </v>
   <v>       0.00000000       0.68589310       0.09620283 </v>
   <v>       0.50000000       0.50000000       0.50000000 </v>
   <v>       0.00000000       0.31410690       0.90379717 </v>
  </varray>
 </structure>
 <calculation>
  <scstep>
   <time name="total">    1.53    1.54</time>
   <energy>
    <i name="alphaZ">    466.11379109 </i>
    <i name="ewald">  -6422.67036760 </i>
    <i name="hartreedc">  -1824.12282641 </i>
    <i name="XCdc">    189.09348510 </i>
    <i name="pawpsdc">   6704.11821796 </i>
    <i name="pawaedc">  -6553.42763219 </i>
    <i name="eentropy">     -0.00848133 </i>
    <i name="bandstr">   1902.61748408 </i>
    <i name="atom">   7657.59362038 </i>
    <i name="e_fr_energy">   2119.30729108 </i>
    <i name="e_wo_entrp">   2119.31577241 </i>
    <i name="e_0_energy">   2119.31153174 </i>
   </energy>
  </scstep>
  <scstep>
   <time name="total">    2.37    2.38</time>
   <energy>
    <i name="e_fr_energy">    579.81517915 </i>
    <i name="e_wo_entrp">    579.82532104 </i>
    <i name="e_0_energy">    579.82025009 </i>
   </energy>
  </scstep>
  <scstep>
   <time name="total">    2.56    2.57</time>
   <energy>
    <i name="e_fr_energy">     18.17004081 </i>
    <i name="e_wo_entrp">     18.17997184 </i>
    <i name="e_0_energy">     18.17500632 </i>
   </energy>
  </scstep>
  <scstep>
   <time name="total">    2.71    2.72</time>
   <energy>
    <i name="e_fr_energy">   -126.96512016 </i>
    <i name="e_wo_entrp">   -126.96225627 </i>
    <i name="e_0_energy">   -126.96368822 </i>
   </energy>
  </scstep>
  <scstep>
   <time name="total">    2.70    2.72</time>
   <energy>
    <i name="e_fr_energy">   -154.54638129 </i>
    <i name="e_wo_entrp">   -154.54395360 </i>
    <i name="e_0_energy">   -154.54516745 </i>
   </energy>
  </scstep>
  <scstep>
   <time name="total">    0.94    0.95</time>
   <energy>
    <i name="e_fr_energy">    -55.95235732 </i>
    <i name="e_wo_entrp">    -55.94863852 </i>
    <i name="e_0_energy">    -55.95049792 </i>
   </energy>
  </scstep>
  <scstep>
   <time name="total">    0.95    0.96</time>
   <energy>
    <i name="e_fr_energy">   -101.35567326 </i>
    <i name="e_wo_entrp">   -101.35305016 </i>
    <i name="e_0_energy">   -101.35436171 </i>
   </energy>
  </scstep>
  <scstep>
   <time name="total">    0.91    0.93</time>
   <energy>
    <i name="e_fr_energy">   -119.85103220 </i>
    <i name="e_wo_entrp">   -119.84917111 </i>
    <i name="e_0_energy">   -119.85010165 </i>
   </energy>
  </scstep>
  <scstep>
   <time name="total">    0.92    0.93</time>
   <energy>
    <i name="e_fr_energy">   -129.35131084 </i>
    <i name="e_wo_entrp">   -129.34950490 </i>
    <i name="e_0_energy">   -129.35040787 </i>
   </energy>
  </scstep>
  <scstep>
   <time name="total">    0.91    0.93</time>
   <energy>
    <i name="e_fr_energy">   -133.38607414 </i>
    <i name="e_wo_entrp">   -133.38371476 </i>
    <i name="e_0_energy">   -133.38489445 </i>
   </energy>
  </scstep>
  <scstep>
   <time name="total">    0.91    0.92</time>
   <energy>
    <i name="e_fr_energy">   -134.25080037 </i>
    <i name="e_wo_entrp">   -134.24867110 </i>
    <i name="e_0_energy">   -134.24973573 </i>
   </energy>
  </scstep>
  <scstep>
   <time name="total">    0.91    0.92</time>
   <energy>
    <i name="e_fr_energy">   -135.07370180 </i>
    <i name="e_wo_entrp">   -135.07148186 </i>
    <i name="e_0_energy">   -135.07259183 </i>
   </energy>
  </scstep>
  <scstep>
   <time name="total">    0.91    0.92</time>
   <energy>
    <i name="e_fr_energy">   -135.13336297 </i>
    <i name="e_wo_entrp">   -135.13104480 </i>
    <i name="e_0_energy">   -135.13220388 </i>
   </energy>
  </scstep>
  <scstep>
   <time name="total">    0.91    0.92</time>
   <energy>
    <i name="e_fr_energy">   -135.25842380 </i>
    <i name="e_wo_entrp">   -135.25601399 </i>
    <i name="e_0_energy">   -135.25721889 </i>
   </energy>
  </scstep>
  <scstep>
   <time name="total">    0.90    0.91</time>
   <energy>
    <i name="e_fr_energy">   -135.26593088 </i>
    <i name="e_wo_entrp">   -135.26346057 </i>
    <i name="e_0_energy">   -135.26469572 </i>
   </energy>
  </scstep>
  <scstep>
   <time name="total">    0.91    0.92</time>
   <energy>
    <i name="e_fr_energy">   -135.28523952 </i>
    <i name="e_wo_entrp">   -135.28274430 </i>
    <i name="e_0_energy">   -135.28399191 </i>
   </energy>
  </scstep>
  <scstep>
   <time name="total">    0.90    0.92</time>
   <energy>
    <i name="e_fr_energy">   -135.28750256 </i>
    <i name="e_wo_entrp">   -135.28499326 </i>
    <i name="e_0_energy">   -135.28624791 </i>
   </energy>
  </scstep>
  <scstep>
   <time name="total">    0.94    0.95</time>
   <energy>
    <i name="e_fr_energy">   -135.29063109 </i>
    <i name="e_wo_entrp">   -135.28810865 </i>
    <i name="e_0_energy">   -135.28936987 </i>
   </energy>
  </scstep>
  <scstep>
   <time name="total">    0.91    0.92</time>
   <energy>
    <i name="e_fr_energy">   -135.29111257 </i>
    <i name="e_wo_entrp">   -135.28858257 </i>
    <i name="e_0_energy">   -135.28984757 </i>
   </energy>
  </scstep>
  <scstep>
   <time name="total">    0.92    0.93</time>
   <energy>
    <i name="e_fr_energy">   -135.29153698 </i>
    <i name="e_wo_entrp">   -135.28900335 </i>
    <i name="e_0_energy">   -135.29027016 </i>
   </energy>
  </scstep>
  <scstep>
   <time name="total">    0.92    0.93</time>
   <energy>
    <i name="e_fr_energy">   -135.29164276 </i>
    <i name="e_wo_entrp">   -135.28910622 </i>
    <i name="e_0_energy">   -135.29037449 </i>
   </energy>
  </scstep>
  <scstep>
   <time name="total">    0.91    0.92</time>
   <energy>
    <i name="e_fr_energy">   -135.29170430 </i>
    <i name="e_wo_entrp">   -135.28916536 </i>
    <i name="e_0_energy">   -135.29043483 </i>
   </energy>
  </scstep>
  <scstep>
   <time name="total">    0.91    0.92</time>
   <energy>
    <i name="e_fr_energy">   -135.29172772 </i>
    <i name="e_wo_entrp">   -135.28918734 </i>
    <i name="e_0_energy">   -135.29045753 </i>
   </energy>
  </scstep>
  <scstep>
   <time name="total">    0.90    0.91</time>
   <energy>
    <i name="e_fr_energy">   -135.29173892 </i>
    <i name="e_wo_entrp">   -135.28919766 </i>
    <i name="e_0_energy">   -135.29046829 </i>
   </energy>
  </scstep>
  <scstep>
   <time name="total">    1.30    1.31</time>
   <energy>
    <i name="alphaZ">    466.11379109 </i>
    <i name="ewald">  -6422.67036760 </i>
    <i name="hartreedc">  -1904.99970430 </i>
    <i name="XCdc">    216.21552784 </i>
    <i name="pawpsdc">   9216.08461726 </i>
    <i name="pawaedc">  -9073.88402376 </i>
    <i name="eentropy">     -0.00254200 </i>
    <i name="bandstr">   -289.74266465 </i>
    <i name="atom">   7657.59362038 </i>
    <i name="e_fr_energy">   -135.29174501 </i>
    <i name="e_wo_entrp">   -135.28920301 </i>
    <i name="e_0_energy">   -135.29047401 </i>
   </energy>
  </scstep>
  <structure>
   <crystal>
    <varray name="basis" >
     <v>       3.71689958       0.00000000       0.00000000 </v>
     <v>       0.00000000       5.40775868       0.00000000 </v>
     <v>       0.00000000       0.00000000      10.67930933 </v>
    </varray>
    <i name="volume">    214.65514242 </i>
    <varray name="rec_basis" >
     <v>       0.26904144      -0.00000000       0.00000000 </v>
     <v>       0.00000000       0.18491949       0.00000000 </v>
     <v>      -0.00000000      -0.00000000       0.09363901 </v>
    </varray>
   </crystal>
   <varray name="positions" >
    <v>       0.50000000       0.73172892       0.13278115 </v>
    <v>       0.50000000       0.26827108       0.86721885 </v>
    <v>       0.50000000       0.76827108       0.63278115 </v>
    <v>       0.50000000       0.23172892       0.36721885 </v>
    <v>       0.00000000       0.75298100       0.39726632 </v>
    <v>       0.00000000       0.24701900       0.60273368 </v>
    <v>       0.00000000       0.25298100       0.10273368 </v>
    <v>       0.00000000       0.74701900       0.89726632 </v>
    <v>       0.50000000       0.00000000       0.00000000 </v>
    <v>       0.50000000       0.62202663       0.81209167 </v>
    <v>       0.50000000       0.12202663       0.68790833 </v>
    <v>       0.50000000       0.87797337       0.31209167 </v>
    <v>       0.00000000       0.81410690       0.59620283 </v>
    <v>       0.00000000       0.18589310       0.40379717 </v>
    <v>       0.50000000       0.37797337       0.18790833 </v>
    <v>       0.00000000       0.68589310       0.09620283 </v>
    <v>       0.50000000       0.50000000       0.50000000 </v>
    <v>       0.00000000       0.31410690       0.90379717 </v>
   </varray>
  </structure>
  <varray name="forces" >
   <v>      -0.00000000      -0.03667593      -0.01467128 </v>
   <v>       0.00000000       0.03667593       0.01467128 </v>
   <v>       0.00000000       0.03667593      -0.01467128 </v>
   <v>      -0.00000000      -0.03667593       0.01467128 </v>
   <v>       0.00000000       0.04320169       0.02386351 </v>
   <v>      -0.00000000      -0.04320169      -0.02386351 </v>
   <v>       0.00000000       0.04320169      -0.02386351 </v>
   <v>      -0.00000000      -0.04320169       0.02386351 </v>
   <v>       0.00000000      -0.00000000       0.00000000 </v>
   <v>       0.00000000       0.00336909       0.01169250 </v>
   <v>       0.00000000       0.00336909      -0.01169250 </v>
   <v>      -0.00000000      -0.00336909       0.01169250 </v>
   <v>       0.00000000       0.00200284      -0.00820627 </v>
   <v>      -0.00000000      -0.00200284       0.00820627 </v>
   <v>      -0.00000000      -0.00336909      -0.01169250 </v>
   <v>      -0.00000000      -0.00200284      -0.00820627 </v>
   <v>       0.00000000      -0.00000000       0.00000000 </v>
   <v>       0.00000000       0.00200284       0.00820627 </v>
  </varray>
  <varray name="stress" >
   <v>     -18.18963373      -0.00000000      -0.00000000 </v>
   <v>      -0.00000000      -9.48817875      -0.00000000 </v>
   <v>      -0.00000000      -0.00000000     -10.21088179 </v>
  </varray>
  <energy>
   <i name="e_fr_energy">   -135.29174501 </i>
   <i name="e_wo_entrp">   -135.28920301 </i>
   <i name="e_0_energy">   -135.29047401 </i>
  </energy>
  <time name="totalsc">   34.36   36.53</time>
  <eigenvalues>
   <array>
    <dimension dim="1">band</dimension>
    <dimension dim="2">kpoint</dimension>
    <dimension dim="3">spin</dimension>
    <field>eigene</field>
    <field>occ</field>
    <set>
     <set comment="spin 1">
      <set comment="kpoint 1">
       <r>  -15.2981    1.0000 </r>
       <r>  -15.1153    1.0000 </r>
       <r>  -14.9013    1.0000 </r>
       <r>  -14.7348    1.0000 </r>
       <r>  -14.0523    1.0000 </r>
       <r>  -14.0457    1.0000 </r>
       <r>  -13.9651    1.0000 </r>
       <r>  -13.9564    1.0000 </r>
       <r>  -13.5878    1.0000 </r>
       <r>  -13.5850    1.0000 </r>
       <r>   -2.7662    1.0000 </r>
       <r>   -2.7117    1.0000 </r>
       <r>   -2.5673    1.0000 </r>
       <r>   -2.5372    1.0000 </r>
       <r>   -2.4892    1.0000 </r>
       <r>   -2.4713    1.0000 </r>
       <r>   -2.3763    1.0000 </r>
       <r>   -2.2346    1.0000 </r>
       <r>   -2.2030    1.0000 </r>
       <r>   -2.1568    1.0000 </r>
       <r>   -2.0865    1.0000 </r>
       <r>   -2.0221    1.0000 </r>
       <r>   -1.9765    1.0000 </r>
       <r>   -1.8285    1.0000 </r>
       <r>   -1.7831    1.0000 </r>
       <r>   -1.6841    1.0000 </r>
       <r>   -1.6803    1.0000 </r>
       <r>   -1.6403    1.0000 </r>
       <r>   -1.2161    1.0000 </r>
       <r>   -1.2125    1.0000 </r>
       <r>   -1.1681    1.0000 </r>
       <r>   -1.0883    1.0000 </r>
       <r>   -0.7117    1.0000 </r>
       <r>   -0.6876    1.0000 </r>
       <r>   -0.6410    1.0000 </r>
       <r>   -0.5443    1.0000 </r>
       <r>   -0.5186    1.0000 </r>
       <r>   -0.4424    1.0000 </r>
       <r>   -0.2125    1.0000 </r>
       <r>   -0.1559    1.0000 </r>
       <r>   -0.1486    1.0000 </r>
       <r>   -0.1445    1.0000 </r>
       <r>   -0.0454    1.0000 </r>
       <r>    0.0516    1.0000 </r>
       <r>    0.1001    1.0000 </r>
       <r>    0.1002    1.0000 </r>
       <r>    0.1498    1.0000 </r>
       <r>    0.1705    1.0000 </r>
       <r>    0.2145    1.0000 </r>
       <r>    0.2511    1.0000 </r>
       <r>    0.4404    1.0000 </r>
       <r>    0.4973    1.0000 </r>
       <r>    0.5580    1.0000 </r>
       <r>    0.8645    1.0000 </r>
       <r>    0.8844    1.0000 </r>
       <r>    0.9119    1.0000 </r>
       <r>    1.1376    1.0000 </r>
       <r>    1.1846    1.0000 </r>
       <r>    1.2199    1.0000 </r>
       <r>    1.3989    1.0000 </r>
       <r>    1.4975    1.0000 </r>
       <r>    1.5269    1.0000 </r>
       <r>    1.6576    1.0000 </r>
       <r>    1.9385    1.0000 </r>
       <r>    2.2146    1.0000 </r>
       <r>    2.2222    1.0000 </r>
       <r>    2.4132    1.0000 </r>
       <r>    2.4817    1.0000 </r>
       <r>    2.6762    1.0000 </r>
       <r>    2.7151    1.0000 </r>
       <r>    2.7670    1.0000 </r>
       <r>    2.8152    1.0000 </r>
       <r>    3.1669    1.0000 </r>
       <r>    3.2221    1.0000 </r>
       <r>    3.2385    1.0000 </r>
       <r>    3.3321    0.9717 </r>
       <r>    3.4308    0.1872 </r>
       <r>    3.4644    0.0331 </r>
       <r>    4.2087    0.0000 </r>
       <r>    4.2133    0.0000 </r>
       <r>    4.8817    0.0000 </r>
       <r>    6.9338    0.0000 </r>
       <r>    7.3050    0.0000 </r>
       <r>    9.0680    0.0000 </r>
       <r>    9.2001    0.0000 </r>
       <r>    9.4942    0.0000 </r>
       <r>   11.0132    0.0000 </r>
       <r>   11.6912    0.0000 </r>
       <r>   12.1856    0.0000 </r>
       <r>   12.9040    0.0000 </r>
      </set>
      <set comment="kpoint 2">
       <r>  -15.2408    1.0000 </r>
       <r>  -15.0639    1.0000 </r>
       <r>  -14.8530    1.0000 </r>
       <r>  -14.6928    1.0000 </r>
       <r>  -14.0547    1.0000 </r>
       <r>  -14.0536    1.0000 </r>
       <r>  -13.9592    1.0000 </r>
       <r>  -13.9554    1.0000 </r>
       <r>  -13.5896    1.0000 </r>
       <r>  -13.5888    1.0000 </r>
       <r>   -2.8609    1.0000 </r>
       <r>   -2.7283    1.0000 </r>
       <r>   -2.7055    1.0000 </r>
       <r>   -2.5796    1.0000 </r>
       <r>   -2.5676    1.0000 </r>
       <r>   -2.5448    1.0000 </r>
       <r>   -2.3897    1.0000 </r>
       <r>   -2.3627    1.0000 </r>
       <r>   -2.2922    1.0000 </r>
       <r>   -2.2336    1.0000 </r>
       <r>   -2.1526    1.0000 </r>
       <r>   -2.0051    1.0000 </r>
       <r>   -1.8629    1.0000 </r>
       <r>   -1.8575    1.0000 </r>
       <r>   -1.7772    1.0000 </r>
       <r>   -1.6938    1.0000 </r>
       <r>   -1.6345    1.0000 </r>
       <r>   -1.3779    1.0000 </r>
       <r>   -1.2660    1.0000 </r>
       <r>   -1.1563    1.0000 </r>
       <r>   -1.0378    1.0000 </r>
       <r>   -0.9840    1.0000 </r>
       <r>   -0.8625    1.0000 </r>
       <r>   -0.7978    1.0000 </r>
       <r>   -0.6759    1.0000 </r>
       <r>   -0.5444    1.0000 </r>
       <r>   -0.4708    1.0000 </r>
       <r>   -0.4547    1.0000 </r>
       <r>   -0.2368    1.0000 </r>
       <r>   -0.1737    1.0000 </r>
       <r>   -0.1221    1.0000 </r>
       <r>   -0.1003    1.0000 </r>
       <r>   -0.0528    1.0000 </r>
       <r>    0.0423    1.0000 </r>
       <r>    0.0859    1.0000 </r>
       <r>    0.1269    1.0000 </r>
       <r>    0.2157    1.0000 </r>
       <r>    0.2318    1.0000 </r>
       <r>    0.2868    1.0000 </r>
       <r>    0.3418    1.0000 </r>
       <r>    0.4190    1.0000 </r>
       <r>    0.5509    1.0000 </r>
       <r>    0.5931    1.0000 </r>
       <r>    0.8311    1.0000 </r>
       <r>    0.8904    1.0000 </r>
       <r>    0.8953    1.0000 </r>
       <r>    0.9376    1.0000 </r>
       <r>    0.9849    1.0000 </r>
       <r>    1.2572    1.0000 </r>
       <r>    1.2777    1.0000 </r>
       <r>    1.3163    1.0000 </r>
       <r>    1.4184    1.0000 </r>
       <r>    1.5167    1.0000 </r>
       <r>    1.7622    1.0000 </r>
       <r>    2.0717    1.0000 </r>
       <r>    2.0927    1.0000 </r>
       <r>    2.1252    1.0000 </r>
       <r>    2.2686    1.0000 </r>
       <r>    2.6544    1.0000 </r>
       <r>    2.7253    1.0000 </r>
       <r>    2.7933    1.0000 </r>
       <r>    2.8039    1.0000 </r>
       <r>    3.2845    0.9994 </r>
       <r>    3.2931    0.9987 </r>
       <r>    3.3223    0.9855 </r>
       <r>    3.3314    0.9728 </r>
       <r>    3.3866    0.6355 </r>
       <r>    3.6993    0.0000 </r>
       <r>    4.4953    0.0000 </r>
       <r>    4.5378    0.0000 </r>
       <r>    5.3475    0.0000 </r>
       <r>    7.1286    0.0000 </r>
       <r>    7.4735    0.0000 </r>
       <r>    8.9427    0.0000 </r>
       <r>    9.1724    0.0000 </r>
       <r>    9.6023    0.0000 </r>
       <r>   11.1203    0.0000 </r>
       <r>   11.6825    0.0000 </r>
       <r>   11.9193    0.0000 </r>
       <r>   13.1233    0.0000 </r>
      </set>
      <set comment="kpoint 3">
       <r>  -15.0814    1.0000 </r>
       <r>  -14.9244    1.0000 </r>
       <r>  -14.7216    1.0000 </r>
       <r>  -14.5823    1.0000 </r>
       <r>  -14.0891    1.0000 </r>
       <r>  -14.0642    1.0000 </r>
       <r>  -13.9590    1.0000 </r>
       <r>  -13.9459    1.0000 </r>
       <r>  -13.6007    1.0000 </r>
       <r>  -13.5955    1.0000 </r>
       <r>   -3.0617    1.0000 </r>
       <r>   -2.9533    1.0000 </r>
       <r>   -2.8780    1.0000 </r>
       <r>   -2.7152    1.0000 </r>
       <r>   -2.6687    1.0000 </r>
       <r>   -2.6135    1.0000 </r>
       <r>   -2.5341    1.0000 </r>
       <r>   -2.4863    1.0000 </r>
       <r>   -2.4418    1.0000 </r>
       <r>   -2.3150    1.0000 </r>
       <r>   -2.2156    1.0000 </r>
       <r>   -2.0843    1.0000 </r>
       <r>   -1.8510    1.0000 </r>
       <r>   -1.7977    1.0000 </r>
       <r>   -1.6746    1.0000 </r>
       <r>   -1.6224    1.0000 </r>
       <r>   -1.4498    1.0000 </r>
       <r>   -1.3894    1.0000 </r>
       <r>   -1.2314    1.0000 </r>
       <r>   -1.0866    1.0000 </r>
       <r>   -1.0640    1.0000 </r>
       <r>   -0.9385    1.0000 </r>
       <r>   -0.9012    1.0000 </r>
       <r>   -0.7668    1.0000 </r>
       <r>   -0.5630    1.0000 </r>
       <r>   -0.5565    1.0000 </r>
       <r>   -0.5494    1.0000 </r>
       <r>   -0.3963    1.0000 </r>
       <r>   -0.3577    1.0000 </r>
       <r>   -0.1453    1.0000 </r>
       <r>   -0.1254    1.0000 </r>
       <r>   -0.1220    1.0000 </r>
       <r>   -0.0465    1.0000 </r>
       <r>    0.0383    1.0000 </r>
       <r>    0.0788    1.0000 </r>
       <r>    0.1041    1.0000 </r>
       <r>    0.1116    1.0000 </r>
       <r>    0.1686    1.0000 </r>
       <r>    0.1942    1.0000 </r>
       <r>    0.2822    1.0000 </r>
       <r>    0.3652    1.0000 </r>
       <r>    0.4626    1.0000 </r>
       <r>    0.5484    1.0000 </r>
       <r>    0.6415    1.0000 </r>
       <r>    0.8190    1.0000 </r>
       <r>    0.8284    1.0000 </r>
       <r>    0.9081    1.0000 </r>
       <r>    0.9390    1.0000 </r>
       <r>    0.9467    1.0000 </r>
       <r>    1.2896    1.0000 </r>
       <r>    1.3421    1.0000 </r>
       <r>    1.4820    1.0000 </r>
       <r>    1.5624    1.0000 </r>
       <r>    1.6054    1.0000 </r>
       <r>    1.7634    1.0000 </r>
       <r>    1.7738    1.0000 </r>
       <r>    2.0077    1.0000 </r>
       <r>    2.1509    1.0000 </r>
       <r>    2.4855    1.0000 </r>
       <r>    2.7123    1.0000 </r>
       <r>    2.7884    1.0000 </r>
       <r>    2.8068    1.0000 </r>
       <r>    3.1100    1.0000 </r>
       <r>    3.1166    1.0000 </r>
       <r>    3.2581    1.0000 </r>
       <r>    3.3085    0.9950 </r>
       <r>    3.7154    0.0000 </r>
       <r>    4.1739    0.0000 </r>
       <r>    4.9893    0.0000 </r>
       <r>    5.0989    0.0000 </r>
       <r>    6.2934    0.0000 </r>
       <r>    7.5946    0.0000 </r>
       <r>    7.9221    0.0000 </r>
       <r>    8.5727    0.0000 </r>
       <r>    9.1447    0.0000 </r>
       <r>    9.8876    0.0000 </r>
       <r>   11.6978    0.0000 </r>
       <r>   11.9283    0.0000 </r>
       <r>   12.2310    0.0000 </r>
       <r>   12.7661    0.0000 </r>
      </set>
      <set comment="kpoint 4">
       <r>  -14.8580    1.0000 </r>
       <r>  -14.7408    1.0000 </r>
       <r>  -14.5443    1.0000 </r>
       <r>  -14.4473    1.0000 </r>
       <r>  -14.1659    1.0000 </r>
       <r>  -14.1007    1.0000 </r>
       <r>  -13.9813    1.0000 </r>
       <r>  -13.9363    1.0000 </r>
       <r>  -13.6184    1.0000 </r>
       <r>  -13.6047    1.0000 </r>
       <r>   -3.1804    1.0000 </r>
       <r>   -3.0932    1.0000 </r>
       <r>   -2.9891    1.0000 </r>
       <r>   -2.9197    1.0000 </r>
       <r>   -2.8422    1.0000 </r>
       <r>   -2.8408    1.0000 </r>
       <r>   -2.7573    1.0000 </r>
       <r>   -2.3886    1.0000 </r>
       <r>   -2.3502    1.0000 </r>
       <r>   -2.3286    1.0000 </r>
       <r>   -2.3214    1.0000 </r>
       <r>   -2.2366    1.0000 </r>
       <r>   -1.8638    1.0000 </r>
       <r>   -1.8386    1.0000 </r>
       <r>   -1.6598    1.0000 </r>
       <r>   -1.5398    1.0000 </r>
       <r>   -1.5226    1.0000 </r>
       <r>   -1.3786    1.0000 </r>
       <r>   -1.3405    1.0000 </r>
       <r>   -1.2545    1.0000 </r>
       <r>   -1.0578    1.0000 </r>
       <r>   -1.0518    1.0000 </r>
       <r>   -0.9155    1.0000 </r>
       <r>   -0.8485    1.0000 </r>
       <r>   -0.5964    1.0000 </r>
       <r>   -0.5070    1.0000 </r>
       <r>   -0.5043    1.0000 </r>
       <r>   -0.4442    1.0000 </r>
       <r>   -0.2920    1.0000 </r>
       <r>   -0.2581    1.0000 </r>
       <r>   -0.1990    1.0000 </r>
       <r>   -0.1630    1.0000 </r>
       <r>   -0.1624    1.0000 </r>
       <r>   -0.0646    1.0000 </r>
       <r>   -0.0464    1.0000 </r>
       <r>    0.0141    1.0000 </r>
       <r>    0.0287    1.0000 </r>
       <r>    0.1368    1.0000 </r>
       <r>    0.2168    1.0000 </r>
       <r>    0.2185    1.0000 </r>
       <r>    0.2374    1.0000 </r>
       <r>    0.4100    1.0000 </r>
       <r>    0.5315    1.0000 </r>
       <r>    0.5590    1.0000 </r>
       <r>    0.7979    1.0000 </r>
       <r>    0.8645    1.0000 </r>
       <r>    0.9965    1.0000 </r>
       <r>    1.0038    1.0000 </r>
       <r>    1.1405    1.0000 </r>
       <r>    1.2245    1.0000 </r>
       <r>    1.3379    1.0000 </r>
       <r>    1.4150    1.0000 </r>
       <r>    1.5429    1.0000 </r>
       <r>    1.6140    1.0000 </r>
       <r>    1.7310    1.0000 </r>
       <r>    1.9263    1.0000 </r>
       <r>    2.1033    1.0000 </r>
       <r>    2.1466    1.0000 </r>
       <r>    2.3179    1.0000 </r>
       <r>    2.5153    1.0000 </r>
       <r>    2.6898    1.0000 </r>
       <r>    2.7441    1.0000 </r>
       <r>    3.0022    1.0000 </r>
       <r>    3.0476    1.0000 </r>
       <r>    3.2161    1.0000 </r>
       <r>    3.2555    1.0000 </r>
       <r>    3.9480    0.0000 </r>
       <r>    4.3548    0.0000 </r>
       <r>    5.3519    0.0000 </r>
       <r>    5.5039    0.0000 </r>
       <r>    7.3514    0.0000 </r>
       <r>    8.1119    0.0000 </r>
       <r>    8.1216    0.0000 </r>
       <r>    8.4358    0.0000 </r>
       <r>    9.2550    0.0000 </r>
       <r>   10.1333    0.0000 </r>
       <r>   11.4022    0.0000 </r>
       <r>   11.8336    0.0000 </r>
       <r>   11.9940    0.0000 </r>
       <r>   12.5013    0.0000 </r>
      </set>
      <set comment="kpoint 5">
       <r>  -14.6442    1.0000 </r>
       <r>  -14.5943    1.0000 </r>
       <r>  -14.3797    1.0000 </r>
       <r>  -14.3511    1.0000 </r>
       <r>  -14.2819    1.0000 </r>
       <r>  -14.1715    1.0000 </r>
       <r>  -14.0192    1.0000 </r>
       <r>  -13.9360    1.0000 </r>
       <r>  -13.6323    1.0000 </r>
       <r>  -13.6122    1.0000 </r>
       <r>   -3.1827    1.0000 </r>
       <r>   -3.1116    1.0000 </r>
       <r>   -3.0220    1.0000 </r>
       <r>   -2.9816    1.0000 </r>
       <r>   -2.9667    1.0000 </r>
       <r>   -2.9358    1.0000 </r>
       <r>   -2.9352    1.0000 </r>
       <r>   -2.5995    1.0000 </r>
       <r>   -2.3582    1.0000 </r>
       <r>   -2.2894    1.0000 </r>
       <r>   -2.2393    1.0000 </r>
       <r>   -2.2298    1.0000 </r>
       <r>   -1.9606    1.0000 </r>
       <r>   -1.9042    1.0000 </r>
       <r>   -1.8312    1.0000 </r>
       <r>   -1.6114    1.0000 </r>
       <r>   -1.6097    1.0000 </r>
       <r>   -1.5074    1.0000 </r>
       <r>   -1.4754    1.0000 </r>
       <r>   -1.3725    1.0000 </r>
       <r>   -1.2496    1.0000 </r>
       <r>   -0.9199    1.0000 </r>
       <r>   -0.8978    1.0000 </r>
       <r>   -0.8447    1.0000 </r>
       <r>   -0.6997    1.0000 </r>
       <r>   -0.5463    1.0000 </r>
       <r>   -0.5074    1.0000 </r>
       <r>   -0.3712    1.0000 </r>
       <r>   -0.3524    1.0000 </r>
       <r>   -0.2412    1.0000 </r>
       <r>   -0.2159    1.0000 </r>
       <r>   -0.1254    1.0000 </r>
       <r>   -0.1117    1.0000 </r>
       <r>   -0.0222    1.0000 </r>
       <r>   -0.0172    1.0000 </r>
       <r>    0.0103    1.0000 </r>
       <r>    0.1021    1.0000 </r>
       <r>    0.1262    1.0000 </r>
       <r>    0.1714    1.0000 </r>
       <r>    0.2129    1.0000 </r>
       <r>    0.3096    1.0000 </r>
       <r>    0.3268    1.0000 </r>
       <r>    0.4425    1.0000 </r>
       <r>    0.6330    1.0000 </r>
       <r>    0.7001    1.0000 </r>
       <r>    0.8235    1.0000 </r>
       <r>    0.8287    1.0000 </r>
       <r>    0.9656    1.0000 </r>
       <r>    1.0784    1.0000 </r>
       <r>    1.1618    1.0000 </r>
       <r>    1.3582    1.0000 </r>
       <r>    1.4917    1.0000 </r>
       <r>    1.5853    1.0000 </r>
       <r>    1.8375    1.0000 </r>
       <r>    2.0645    1.0000 </r>
       <r>    2.0832    1.0000 </r>
       <r>    2.1180    1.0000 </r>
       <r>    2.2409    1.0000 </r>
       <r>    2.2675    1.0000 </r>
       <r>    2.2958    1.0000 </r>
       <r>    2.4991    1.0000 </r>
       <r>    2.5051    1.0000 </r>
       <r>    3.0352    1.0000 </r>
       <r>    3.0881    1.0000 </r>
       <r>    3.1884    1.0000 </r>
       <r>    3.2362    1.0000 </r>
       <r>    4.0517    0.0000 </r>
       <r>    4.3497    0.0000 </r>
       <r>    5.5226    0.0000 </r>
       <r>    5.6911    0.0000 </r>
       <r>    7.8234    0.0000 </r>
       <r>    8.3230    0.0000 </r>
       <r>    8.4747    0.0000 </r>
       <r>    8.7015    0.0000 </r>
       <r>    9.5308    0.0000 </r>
       <r>    9.8336    0.0000 </r>
       <r>   11.0604    0.0000 </r>
       <r>   11.5069    0.0000 </r>
       <r>   11.9281    0.0000 </r>
       <r>   12.4809    0.0000 </r>
      </set>
      <set comment="kpoint 6">
       <r>  -15.2585    1.0000 </r>
       <r>  -15.0913    1.0000 </r>
       <r>  -14.8962    1.0000 </r>
       <r>  -14.7600    1.0000 </r>
       <r>  -14.0869    1.0000 </r>
       <r>  -14.0311    1.0000 </r>
       <r>  -14.0208    1.0000 </r>
       <r>  -13.9482    1.0000 </r>
       <r>  -13.5753    1.0000 </r>
       <r>  -13.5701    1.0000 </r>
       <r>   -2.8074    1.0000 </r>
       <r>   -2.6361    1.0000 </r>
       <r>   -2.5729    1.0000 </r>
       <r>   -2.5549    1.0000 </r>
       <r>   -2.5053    1.0000 </r>
       <r>   -2.4957    1.0000 </r>
       <r>   -2.3794    1.0000 </r>
       <r>   -2.2730    1.0000 </r>
       <r>   -2.2630    1.0000 </r>
       <r>   -2.1559    1.0000 </r>
       <r>   -2.1119    1.0000 </r>
       <r>   -1.9804    1.0000 </r>
       <r>   -1.9151    1.0000 </r>
       <r>   -1.9013    1.0000 </r>
       <r>   -1.7837    1.0000 </r>
       <r>   -1.6882    1.0000 </r>
       <r>   -1.6801    1.0000 </r>
       <r>   -1.5748    1.0000 </r>
       <r>   -1.4262    1.0000 </r>
       <r>   -1.2808    1.0000 </r>
       <r>   -1.2221    1.0000 </r>
       <r>   -1.0992    1.0000 </r>
       <r>   -0.8215    1.0000 </r>
       <r>   -0.7456    1.0000 </r>
       <r>   -0.6740    1.0000 </r>
       <r>   -0.5471    1.0000 </r>
       <r>   -0.5060    1.0000 </r>
       <r>   -0.4472    1.0000 </r>
       <r>   -0.3602    1.0000 </r>
       <r>   -0.3047    1.0000 </r>
       <r>   -0.1082    1.0000 </r>
       <r>   -0.0510    1.0000 </r>
       <r>    0.0005    1.0000 </r>
       <r>    0.0504    1.0000 </r>
       <r>    0.0686    1.0000 </r>
       <r>    0.1188    1.0000 </r>
       <r>    0.1350    1.0000 </r>
       <r>    0.1356    1.0000 </r>
       <r>    0.2919    1.0000 </r>
       <r>    0.3894    1.0000 </r>
       <r>    0.4534    1.0000 </r>
       <r>    0.5546    1.0000 </r>
       <r>    0.5764    1.0000 </r>
       <r>    0.6274    1.0000 </r>
       <r>    0.9661    1.0000 </r>
       <r>    1.1243    1.0000 </r>
       <r>    1.2392    1.0000 </r>
       <r>    1.3081    1.0000 </r>
       <r>    1.3899    1.0000 </r>
       <r>    1.4611    1.0000 </r>
       <r>    1.5555    1.0000 </r>
       <r>    1.6535    1.0000 </r>
       <r>    1.7402    1.0000 </r>
       <r>    1.9130    1.0000 </r>
       <r>    2.1096    1.0000 </r>
       <r>    2.2728    1.0000 </r>
       <r>    2.3571    1.0000 </r>
       <r>    2.4242    1.0000 </r>
       <r>    2.7585    1.0000 </r>
       <r>    2.7621    1.0000 </r>
       <r>    2.7973    1.0000 </r>
       <r>    2.8788    1.0000 </r>
       <r>    2.9866    1.0000 </r>
       <r>    3.1864    1.0000 </r>
       <r>    3.3601    0.8637 </r>
       <r>    3.3945    0.5551 </r>
       <r>    3.4300    0.1935 </r>
       <r>    3.4476    0.0837 </r>
       <r>    4.1072    0.0000 </r>
       <r>    4.1422    0.0000 </r>
       <r>    5.1988    0.0000 </r>
       <r>    7.0481    0.0000 </r>
       <r>    7.4286    0.0000 </r>
       <r>    8.7695    0.0000 </r>
       <r>    9.2135    0.0000 </r>
       <r>    9.5345    0.0000 </r>
       <r>   10.8088    0.0000 </r>
       <r>   11.4128    0.0000 </r>
       <r>   11.9353    0.0000 </r>
       <r>   12.5894    0.0000 </r>
      </set>
      <set comment="kpoint 7">
       <r>  -15.2023    1.0000 </r>
       <r>  -15.0409    1.0000 </r>
       <r>  -14.8481    1.0000 </r>
       <r>  -14.7170    1.0000 </r>
       <r>  -14.0858    1.0000 </r>
       <r>  -14.0372    1.0000 </r>
       <r>  -14.0115    1.0000 </r>
       <r>  -13.9466    1.0000 </r>
       <r>  -13.5807    1.0000 </r>
       <r>  -13.5779    1.0000 </r>
       <r>   -2.8922    1.0000 </r>
       <r>   -2.7386    1.0000 </r>
       <r>   -2.6830    1.0000 </r>
       <r>   -2.5666    1.0000 </r>
       <r>   -2.5598    1.0000 </r>
       <r>   -2.5326    1.0000 </r>
       <r>   -2.4953    1.0000 </r>
       <r>   -2.3575    1.0000 </r>
       <r>   -2.2619    1.0000 </r>
       <r>   -2.2151    1.0000 </r>
       <r>   -2.0945    1.0000 </r>
       <r>   -2.0346    1.0000 </r>
       <r>   -2.0193    1.0000 </r>
       <r>   -1.8844    1.0000 </r>
       <r>   -1.8332    1.0000 </r>
       <r>   -1.6958    1.0000 </r>
       <r>   -1.5895    1.0000 </r>
       <r>   -1.4345    1.0000 </r>
       <r>   -1.3774    1.0000 </r>
       <r>   -1.2320    1.0000 </r>
       <r>   -1.0783    1.0000 </r>
       <r>   -1.0616    1.0000 </r>
       <r>   -0.8407    1.0000 </r>
       <r>   -0.7491    1.0000 </r>
       <r>   -0.7446    1.0000 </r>
       <r>   -0.5878    1.0000 </r>
       <r>   -0.4955    1.0000 </r>
       <r>   -0.4457    1.0000 </r>
       <r>   -0.3039    1.0000 </r>
       <r>   -0.1906    1.0000 </r>
       <r>   -0.1088    1.0000 </r>
       <r>   -0.0573    1.0000 </r>
       <r>   -0.0183    1.0000 </r>
       <r>    0.0466    1.0000 </r>
       <r>    0.0812    1.0000 </r>
       <r>    0.1103    1.0000 </r>
       <r>    0.1751    1.0000 </r>
       <r>    0.2728    1.0000 </r>
       <r>    0.3239    1.0000 </r>
       <r>    0.3892    1.0000 </r>
       <r>    0.4734    1.0000 </r>
       <r>    0.5838    1.0000 </r>
       <r>    0.6161    1.0000 </r>
       <r>    0.6330    1.0000 </r>
       <r>    0.8972    1.0000 </r>
       <r>    0.9138    1.0000 </r>
       <r>    1.0501    1.0000 </r>
       <r>    1.1992    1.0000 </r>
       <r>    1.2444    1.0000 </r>
       <r>    1.3353    1.0000 </r>
       <r>    1.5130    1.0000 </r>
       <r>    1.5890    1.0000 </r>
       <r>    1.6531    1.0000 </r>
       <r>    1.7957    1.0000 </r>
       <r>    2.0465    1.0000 </r>
       <r>    2.1033    1.0000 </r>
       <r>    2.2212    1.0000 </r>
       <r>    2.2407    1.0000 </r>
       <r>    2.5533    1.0000 </r>
       <r>    2.7551    1.0000 </r>
       <r>    2.8581    1.0000 </r>
       <r>    2.8888    1.0000 </r>
       <r>    3.0229    1.0000 </r>
       <r>    3.2320    1.0000 </r>
       <r>    3.2347    1.0000 </r>
       <r>    3.2737    0.9998 </r>
       <r>    3.7134    0.0000 </r>
       <r>    3.7406    0.0000 </r>
       <r>    4.4113    0.0000 </r>
       <r>    4.4826    0.0000 </r>
       <r>    5.5696    0.0000 </r>
       <r>    7.2332    0.0000 </r>
       <r>    7.5849    0.0000 </r>
       <r>    8.7475    0.0000 </r>
       <r>    9.1246    0.0000 </r>
       <r>    9.6285    0.0000 </r>
       <r>   11.0949    0.0000 </r>
       <r>   11.7492    0.0000 </r>
       <r>   12.0580    0.0000 </r>
       <r>   12.8301    0.0000 </r>
      </set>
      <set comment="kpoint 8">
       <r>  -15.0466    1.0000 </r>
       <r>  -14.9042    1.0000 </r>
       <r>  -14.7172    1.0000 </r>
       <r>  -14.6030    1.0000 </r>
       <r>  -14.0958    1.0000 </r>
       <r>  -14.0577    1.0000 </r>
       <r>  -13.9916    1.0000 </r>
       <r>  -13.9465    1.0000 </r>
       <r>  -13.6007    1.0000 </r>
       <r>  -13.5959    1.0000 </r>
       <r>   -3.0965    1.0000 </r>
       <r>   -2.9724    1.0000 </r>
       <r>   -2.8467    1.0000 </r>
       <r>   -2.8014    1.0000 </r>
       <r>   -2.6967    1.0000 </r>
       <r>   -2.6300    1.0000 </r>
       <r>   -2.4679    1.0000 </r>
       <r>   -2.4517    1.0000 </r>
       <r>   -2.4320    1.0000 </r>
       <r>   -2.2949    1.0000 </r>
       <r>   -2.2302    1.0000 </r>
       <r>   -2.1513    1.0000 </r>
       <r>   -2.0236    1.0000 </r>
       <r>   -1.9188    1.0000 </r>
       <r>   -1.7223    1.0000 </r>
       <r>   -1.6316    1.0000 </r>
       <r>   -1.5285    1.0000 </r>
       <r>   -1.4402    1.0000 </r>
       <r>   -1.2521    1.0000 </r>
       <r>   -1.0318    1.0000 </r>
       <r>   -1.0150    1.0000 </r>
       <r>   -0.9624    1.0000 </r>
       <r>   -0.9236    1.0000 </r>
       <r>   -0.8287    1.0000 </r>
       <r>   -0.5879    1.0000 </r>
       <r>   -0.5500    1.0000 </r>
       <r>   -0.4359    1.0000 </r>
       <r>   -0.3945    1.0000 </r>
       <r>   -0.3522    1.0000 </r>
       <r>   -0.1576    1.0000 </r>
       <r>   -0.1434    1.0000 </r>
       <r>   -0.1052    1.0000 </r>
       <r>   -0.0194    1.0000 </r>
       <r>    0.0651    1.0000 </r>
       <r>    0.0674    1.0000 </r>
       <r>    0.1226    1.0000 </r>
       <r>    0.1296    1.0000 </r>
       <r>    0.1907    1.0000 </r>
       <r>    0.2249    1.0000 </r>
       <r>    0.3158    1.0000 </r>
       <r>    0.3249    1.0000 </r>
       <r>    0.5037    1.0000 </r>
       <r>    0.5817    1.0000 </r>
       <r>    0.6267    1.0000 </r>
       <r>    0.6902    1.0000 </r>
       <r>    0.8539    1.0000 </r>
       <r>    0.8665    1.0000 </r>
       <r>    1.0569    1.0000 </r>
       <r>    1.1085    1.0000 </r>
       <r>    1.3325    1.0000 </r>
       <r>    1.3401    1.0000 </r>
       <r>    1.6178    1.0000 </r>
       <r>    1.7188    1.0000 </r>
       <r>    1.7751    1.0000 </r>
       <r>    1.8148    1.0000 </r>
       <r>    1.8726    1.0000 </r>
       <r>    2.0980    1.0000 </r>
       <r>    2.1071    1.0000 </r>
       <r>    2.4103    1.0000 </r>
       <r>    2.6574    1.0000 </r>
       <r>    2.8536    1.0000 </r>
       <r>    2.8751    1.0000 </r>
       <r>    3.0457    1.0000 </r>
       <r>    3.0585    1.0000 </r>
       <r>    3.0700    1.0000 </r>
       <r>    3.1662    1.0000 </r>
       <r>    4.0146    0.0000 </r>
       <r>    4.2115    0.0000 </r>
       <r>    4.9233    0.0000 </r>
       <r>    5.0482    0.0000 </r>
       <r>    6.4122    0.0000 </r>
       <r>    7.6628    0.0000 </r>
       <r>    7.9894    0.0000 </r>
       <r>    8.5244    0.0000 </r>
       <r>    9.0669    0.0000 </r>
       <r>    9.8805    0.0000 </r>
       <r>   11.2252    0.0000 </r>
       <r>   12.1191    0.0000 </r>
       <r>   12.2376    0.0000 </r>
       <r>   12.7301    0.0000 </r>
      </set>
      <set comment="kpoint 9">
       <r>  -14.8306    1.0000 </r>
       <r>  -14.7262    1.0000 </r>
       <r>  -14.5410    1.0000 </r>
       <r>  -14.4612    1.0000 </r>
       <r>  -14.1528    1.0000 </r>
       <r>  -14.0936    1.0000 </r>
       <r>  -13.9866    1.0000 </r>
       <r>  -13.9502    1.0000 </r>
       <r>  -13.6335    1.0000 </r>
       <r>  -13.6156    1.0000 </r>
       <r>   -3.2399    1.0000 </r>
       <r>   -3.1230    1.0000 </r>
       <r>   -3.0642    1.0000 </r>
       <r>   -2.9607    1.0000 </r>
       <r>   -2.8776    1.0000 </r>
       <r>   -2.8581    1.0000 </r>
       <r>   -2.6629    1.0000 </r>
       <r>   -2.5304    1.0000 </r>
       <r>   -2.3349    1.0000 </r>
       <r>   -2.2997    1.0000 </r>
       <r>   -2.2550    1.0000 </r>
       <r>   -2.2443    1.0000 </r>
       <r>   -1.9764    1.0000 </r>
       <r>   -1.9589    1.0000 </r>
       <r>   -1.6982    1.0000 </r>
       <r>   -1.6474    1.0000 </r>
       <r>   -1.6163    1.0000 </r>
       <r>   -1.5590    1.0000 </r>
       <r>   -1.2912    1.0000 </r>
       <r>   -1.0560    1.0000 </r>
       <r>   -1.0318    1.0000 </r>
       <r>   -0.9458    1.0000 </r>
       <r>   -0.8919    1.0000 </r>
       <r>   -0.8657    1.0000 </r>
       <r>   -0.6699    1.0000 </r>
       <r>   -0.4544    1.0000 </r>
       <r>   -0.4275    1.0000 </r>
       <r>   -0.4186    1.0000 </r>
       <r>   -0.2824    1.0000 </r>
       <r>   -0.2757    1.0000 </r>
       <r>   -0.1914    1.0000 </r>
       <r>   -0.1518    1.0000 </r>
       <r>   -0.1040    1.0000 </r>
       <r>   -0.0537    1.0000 </r>
       <r>   -0.0054    1.0000 </r>
       <r>    0.0243    1.0000 </r>
       <r>    0.0945    1.0000 </r>
       <r>    0.1446    1.0000 </r>
       <r>    0.1920    1.0000 </r>
       <r>    0.2602    1.0000 </r>
       <r>    0.3356    1.0000 </r>
       <r>    0.3558    1.0000 </r>
       <r>    0.4972    1.0000 </r>
       <r>    0.5924    1.0000 </r>
       <r>    0.7978    1.0000 </r>
       <r>    0.8633    1.0000 </r>
       <r>    0.9283    1.0000 </r>
       <r>    1.1168    1.0000 </r>
       <r>    1.1986    1.0000 </r>
       <r>    1.2160    1.0000 </r>
       <r>    1.2467    1.0000 </r>
       <r>    1.5635    1.0000 </r>
       <r>    1.6204    1.0000 </r>
       <r>    1.6596    1.0000 </r>
       <r>    1.8467    1.0000 </r>
       <r>    1.9940    1.0000 </r>
       <r>    2.1756    1.0000 </r>
       <r>    2.1948    1.0000 </r>
       <r>    2.2853    1.0000 </r>
       <r>    2.4720    1.0000 </r>
       <r>    2.7385    1.0000 </r>
       <r>    2.7908    1.0000 </r>
       <r>    2.9740    1.0000 </r>
       <r>    3.0237    1.0000 </r>
       <r>    3.0261    1.0000 </r>
       <r>    3.1440    1.0000 </r>
       <r>    4.1945    0.0000 </r>
       <r>    4.4074    0.0000 </r>
       <r>    5.2978    0.0000 </r>
       <r>    5.4491    0.0000 </r>
       <r>    7.4133    0.0000 </r>
       <r>    8.1092    0.0000 </r>
       <r>    8.1170    0.0000 </r>
       <r>    8.4661    0.0000 </r>
       <r>    9.2570    0.0000 </r>
       <r>   10.1153    0.0000 </r>
       <r>   11.3956    0.0000 </r>
       <r>   11.5990    0.0000 </r>
       <r>   12.1416    0.0000 </r>
       <r>   12.7513    0.0000 </r>
      </set>
      <set comment="kpoint 10">
       <r>  -14.6296    1.0000 </r>
       <r>  -14.5866    1.0000 </r>
       <r>  -14.3798    1.0000 </r>
       <r>  -14.3561    1.0000 </r>
       <r>  -14.2527    1.0000 </r>
       <r>  -14.1564    1.0000 </r>
       <r>  -14.0121    1.0000 </r>
       <r>  -13.9522    1.0000 </r>
       <r>  -13.6588    1.0000 </r>
       <r>  -13.6293    1.0000 </r>
       <r>   -3.2558    1.0000 </r>
       <r>   -3.2221    1.0000 </r>
       <r>   -3.1791    1.0000 </r>
       <r>   -3.0979    1.0000 </r>
       <r>   -2.9105    1.0000 </r>
       <r>   -2.9083    1.0000 </r>
       <r>   -2.8238    1.0000 </r>
       <r>   -2.7019    1.0000 </r>
       <r>   -2.3418    1.0000 </r>
       <r>   -2.2137    1.0000 </r>
       <r>   -2.2073    1.0000 </r>
       <r>   -2.1825    1.0000 </r>
       <r>   -2.0506    1.0000 </r>
       <r>   -1.9564    1.0000 </r>
       <r>   -1.8291    1.0000 </r>
       <r>   -1.8120    1.0000 </r>
       <r>   -1.7637    1.0000 </r>
       <r>   -1.6507    1.0000 </r>
       <r>   -1.6038    1.0000 </r>
       <r>   -1.1600    1.0000 </r>
       <r>   -0.9481    1.0000 </r>
       <r>   -0.9232    1.0000 </r>
       <r>   -0.8409    1.0000 </r>
       <r>   -0.7927    1.0000 </r>
       <r>   -0.6735    1.0000 </r>
       <r>   -0.5879    1.0000 </r>
       <r>   -0.4630    1.0000 </r>
       <r>   -0.4514    1.0000 </r>
       <r>   -0.2670    1.0000 </r>
       <r>   -0.2511    1.0000 </r>
       <r>   -0.1195    1.0000 </r>
       <r>   -0.0843    1.0000 </r>
       <r>   -0.0590    1.0000 </r>
       <r>   -0.0089    1.0000 </r>
       <r>    0.0001    1.0000 </r>
       <r>    0.0626    1.0000 </r>
       <r>    0.0759    1.0000 </r>
       <r>    0.1804    1.0000 </r>
       <r>    0.1868    1.0000 </r>
       <r>    0.2327    1.0000 </r>
       <r>    0.3100    1.0000 </r>
       <r>    0.3185    1.0000 </r>
       <r>    0.3803    1.0000 </r>
       <r>    0.6480    1.0000 </r>
       <r>    0.7916    1.0000 </r>
       <r>    0.8363    1.0000 </r>
       <r>    0.8432    1.0000 </r>
       <r>    0.9842    1.0000 </r>
       <r>    1.0326    1.0000 </r>
       <r>    1.2790    1.0000 </r>
       <r>    1.3422    1.0000 </r>
       <r>    1.4660    1.0000 </r>
       <r>    1.6036    1.0000 </r>
       <r>    1.6404    1.0000 </r>
       <r>    2.1225    1.0000 </r>
       <r>    2.1499    1.0000 </r>
       <r>    2.1596    1.0000 </r>
       <r>    2.2558    1.0000 </r>
       <r>    2.3493    1.0000 </r>
       <r>    2.4131    1.0000 </r>
       <r>    2.5330    1.0000 </r>
       <r>    2.6015    1.0000 </r>
       <r>    2.9639    1.0000 </r>
       <r>    3.0249    1.0000 </r>
       <r>    3.0674    1.0000 </r>
       <r>    3.1832    1.0000 </r>
       <r>    4.2649    0.0000 </r>
       <r>    4.4162    0.0000 </r>
       <r>    5.4745    0.0000 </r>
       <r>    5.6274    0.0000 </r>
       <r>    7.8442    0.0000 </r>
       <r>    8.3494    0.0000 </r>
       <r>    8.4237    0.0000 </r>
       <r>    8.7086    0.0000 </r>
       <r>    9.5959    0.0000 </r>
       <r>    9.9133    0.0000 </r>
       <r>   10.8872    0.0000 </r>
       <r>   11.5182    0.0000 </r>
       <r>   11.9473    0.0000 </r>
       <r>   12.9583    0.0000 </r>
      </set>
      <set comment="kpoint 11">
       <r>  -15.1533    1.0000 </r>
       <r>  -15.0368    1.0000 </r>
       <r>  -14.8930    1.0000 </r>
       <r>  -14.8338    1.0000 </r>
       <r>  -14.1372    1.0000 </r>
       <r>  -14.1025    1.0000 </r>
       <r>  -14.0122    1.0000 </r>
       <r>  -13.9636    1.0000 </r>
       <r>  -13.5518    1.0000 </r>
       <r>  -13.5467    1.0000 </r>
       <r>   -2.8479    1.0000 </r>
       <r>   -2.6895    1.0000 </r>
       <r>   -2.5395    1.0000 </r>
       <r>   -2.5328    1.0000 </r>
       <r>   -2.5225    1.0000 </r>
       <r>   -2.5099    1.0000 </r>
       <r>   -2.3877    1.0000 </r>
       <r>   -2.3685    1.0000 </r>
       <r>   -2.3206    1.0000 </r>
       <r>   -2.2423    1.0000 </r>
       <r>   -2.1299    1.0000 </r>
       <r>   -1.9792    1.0000 </r>
       <r>   -1.7924    1.0000 </r>
       <r>   -1.7890    1.0000 </r>
       <r>   -1.7627    1.0000 </r>
       <r>   -1.7102    1.0000 </r>
       <r>   -1.6880    1.0000 </r>
       <r>   -1.6515    1.0000 </r>
       <r>   -1.4591    1.0000 </r>
       <r>   -1.3775    1.0000 </r>
       <r>   -1.3599    1.0000 </r>
       <r>   -1.2305    1.0000 </r>
       <r>   -1.0341    1.0000 </r>
       <r>   -0.9148    1.0000 </r>
       <r>   -0.8057    1.0000 </r>
       <r>   -0.7531    1.0000 </r>
       <r>   -0.4673    1.0000 </r>
       <r>   -0.4544    1.0000 </r>
       <r>   -0.4191    1.0000 </r>
       <r>   -0.2446    1.0000 </r>
       <r>   -0.0520    1.0000 </r>
       <r>   -0.0491    1.0000 </r>
       <r>   -0.0477    1.0000 </r>
       <r>   -0.0039    1.0000 </r>
       <r>    0.0943    1.0000 </r>
       <r>    0.0949    1.0000 </r>
       <r>    0.1042    1.0000 </r>
       <r>    0.1299    1.0000 </r>
       <r>    0.1731    1.0000 </r>
       <r>    0.2640    1.0000 </r>
       <r>    0.5214    1.0000 </r>
       <r>    0.5220    1.0000 </r>
       <r>    0.8653    1.0000 </r>
       <r>    1.0459    1.0000 </r>
       <r>    1.1718    1.0000 </r>
       <r>    1.3167    1.0000 </r>
       <r>    1.3175    1.0000 </r>
       <r>    1.4317    1.0000 </r>
       <r>    1.5644    1.0000 </r>
       <r>    1.6190    1.0000 </r>
       <r>    1.7605    1.0000 </r>
       <r>    1.8221    1.0000 </r>
       <r>    1.8768    1.0000 </r>
       <r>    1.9137    1.0000 </r>
       <r>    2.0045    1.0000 </r>
       <r>    2.2060    1.0000 </r>
       <r>    2.3633    1.0000 </r>
       <r>    2.3731    1.0000 </r>
       <r>    2.8521    1.0000 </r>
       <r>    2.8625    1.0000 </r>
       <r>    2.8950    1.0000 </r>
       <r>    2.9005    1.0000 </r>
       <r>    2.9744    1.0000 </r>
       <r>    3.0674    1.0000 </r>
       <r>    3.3150    0.9915 </r>
       <r>    3.3464    0.9330 </r>
       <r>    3.4598    0.0416 </r>
       <r>    3.5531    0.0000 </r>
       <r>    3.9181    0.0000 </r>
       <r>    3.9718    0.0000 </r>
       <r>    5.9916    0.0000 </r>
       <r>    7.3951    0.0000 </r>
       <r>    7.6107    0.0000 </r>
       <r>    8.2871    0.0000 </r>
       <r>    8.8633    0.0000 </r>
       <r>    9.4777    0.0000 </r>
       <r>   10.6748    0.0000 </r>
       <r>   10.7757    0.0000 </r>
       <r>   12.3589    0.0000 </r>
       <r>   13.2208    0.0000 </r>
      </set>
      <set comment="kpoint 12">
       <r>  -15.1006    1.0000 </r>
       <r>  -14.9889    1.0000 </r>
       <r>  -14.8448    1.0000 </r>
       <r>  -14.7873    1.0000 </r>
       <r>  -14.1273    1.0000 </r>
       <r>  -14.0875    1.0000 </r>
       <r>  -14.0164    1.0000 </r>
       <r>  -13.9632    1.0000 </r>
       <r>  -13.5635    1.0000 </r>
       <r>  -13.5602    1.0000 </r>
       <r>   -2.9446    1.0000 </r>
       <r>   -2.8383    1.0000 </r>
       <r>   -2.6425    1.0000 </r>
       <r>   -2.6122    1.0000 </r>
       <r>   -2.5199    1.0000 </r>
       <r>   -2.5012    1.0000 </r>
       <r>   -2.4853    1.0000 </r>
       <r>   -2.3997    1.0000 </r>
       <r>   -2.2516    1.0000 </r>
       <r>   -2.2156    1.0000 </r>
       <r>   -2.1370    1.0000 </r>
       <r>   -2.1230    1.0000 </r>
       <r>   -1.9902    1.0000 </r>
       <r>   -1.9694    1.0000 </r>
       <r>   -1.7930    1.0000 </r>
       <r>   -1.7489    1.0000 </r>
       <r>   -1.6248    1.0000 </r>
       <r>   -1.5702    1.0000 </r>
       <r>   -1.4332    1.0000 </r>
       <r>   -1.3613    1.0000 </r>
       <r>   -1.2481    1.0000 </r>
       <r>   -1.2441    1.0000 </r>
       <r>   -0.8657    1.0000 </r>
       <r>   -0.7815    1.0000 </r>
       <r>   -0.7808    1.0000 </r>
       <r>   -0.6423    1.0000 </r>
       <r>   -0.5050    1.0000 </r>
       <r>   -0.3936    1.0000 </r>
       <r>   -0.3502    1.0000 </r>
       <r>   -0.1625    1.0000 </r>
       <r>   -0.0714    1.0000 </r>
       <r>   -0.0625    1.0000 </r>
       <r>   -0.0118    1.0000 </r>
       <r>    0.0132    1.0000 </r>
       <r>    0.0245    1.0000 </r>
       <r>    0.1079    1.0000 </r>
       <r>    0.1883    1.0000 </r>
       <r>    0.1992    1.0000 </r>
       <r>    0.2545    1.0000 </r>
       <r>    0.3563    1.0000 </r>
       <r>    0.4626    1.0000 </r>
       <r>    0.5191    1.0000 </r>
       <r>    0.7993    1.0000 </r>
       <r>    0.9543    1.0000 </r>
       <r>    0.9624    1.0000 </r>
       <r>    1.0138    1.0000 </r>
       <r>    1.1839    1.0000 </r>
       <r>    1.4146    1.0000 </r>
       <r>    1.4341    1.0000 </r>
       <r>    1.4384    1.0000 </r>
       <r>    1.7661    1.0000 </r>
       <r>    1.8110    1.0000 </r>
       <r>    1.8311    1.0000 </r>
       <r>    1.9045    1.0000 </r>
       <r>    1.9599    1.0000 </r>
       <r>    2.0110    1.0000 </r>
       <r>    2.3338    1.0000 </r>
       <r>    2.4112    1.0000 </r>
       <r>    2.5725    1.0000 </r>
       <r>    2.7071    1.0000 </r>
       <r>    2.8908    1.0000 </r>
       <r>    2.9568    1.0000 </r>
       <r>    3.0091    1.0000 </r>
       <r>    3.0743    1.0000 </r>
       <r>    3.1105    1.0000 </r>
       <r>    3.1250    1.0000 </r>
       <r>    3.8366    0.0000 </r>
       <r>    3.8675    0.0000 </r>
       <r>    4.2823    0.0000 </r>
       <r>    4.3340    0.0000 </r>
       <r>    6.2192    0.0000 </r>
       <r>    7.5427    0.0000 </r>
       <r>    7.7178    0.0000 </r>
       <r>    8.3548    0.0000 </r>
       <r>    8.8574    0.0000 </r>
       <r>    9.5411    0.0000 </r>
       <r>   10.7912    0.0000 </r>
       <r>   11.6527    0.0000 </r>
       <r>   12.2172    0.0000 </r>
       <r>   13.0808    0.0000 </r>
      </set>
      <set comment="kpoint 13">
       <r>  -14.9562    1.0000 </r>
       <r>  -14.8603    1.0000 </r>
       <r>  -14.7135    1.0000 </r>
       <r>  -14.6617    1.0000 </r>
       <r>  -14.1089    1.0000 </r>
       <r>  -14.0507    1.0000 </r>
       <r>  -14.0337    1.0000 </r>
       <r>  -13.9667    1.0000 </r>
       <r>  -13.5998    1.0000 </r>
       <r>  -13.5966    1.0000 </r>
       <r>   -3.1607    1.0000 </r>
       <r>   -3.0775    1.0000 </r>
       <r>   -2.8443    1.0000 </r>
       <r>   -2.8011    1.0000 </r>
       <r>   -2.7110    1.0000 </r>
       <r>   -2.6523    1.0000 </r>
       <r>   -2.5174    1.0000 </r>
       <r>   -2.4668    1.0000 </r>
       <r>   -2.3555    1.0000 </r>
       <r>   -2.2689    1.0000 </r>
       <r>   -2.2352    1.0000 </r>
       <r>   -2.2316    1.0000 </r>
       <r>   -2.1405    1.0000 </r>
       <r>   -2.0207    1.0000 </r>
       <r>   -1.8470    1.0000 </r>
       <r>   -1.8396    1.0000 </r>
       <r>   -1.5439    1.0000 </r>
       <r>   -1.4192    1.0000 </r>
       <r>   -1.3271    1.0000 </r>
       <r>   -1.2683    1.0000 </r>
       <r>   -1.1822    1.0000 </r>
       <r>   -1.0632    1.0000 </r>
       <r>   -0.8285    1.0000 </r>
       <r>   -0.7069    1.0000 </r>
       <r>   -0.5399    1.0000 </r>
       <r>   -0.5101    1.0000 </r>
       <r>   -0.4178    1.0000 </r>
       <r>   -0.3302    1.0000 </r>
       <r>   -0.2629    1.0000 </r>
       <r>   -0.1359    1.0000 </r>
       <r>   -0.1327    1.0000 </r>
       <r>   -0.1093    1.0000 </r>
       <r>   -0.0323    1.0000 </r>
       <r>    0.0366    1.0000 </r>
       <r>    0.0471    1.0000 </r>
       <r>    0.0732    1.0000 </r>
       <r>    0.1681    1.0000 </r>
       <r>    0.1757    1.0000 </r>
       <r>    0.2752    1.0000 </r>
       <r>    0.2968    1.0000 </r>
       <r>    0.4262    1.0000 </r>
       <r>    0.4985    1.0000 </r>
       <r>    0.5245    1.0000 </r>
       <r>    0.6072    1.0000 </r>
       <r>    0.7897    1.0000 </r>
       <r>    0.8867    1.0000 </r>
       <r>    1.0115    1.0000 </r>
       <r>    1.2322    1.0000 </r>
       <r>    1.3781    1.0000 </r>
       <r>    1.4213    1.0000 </r>
       <r>    1.4595    1.0000 </r>
       <r>    1.7393    1.0000 </r>
       <r>    1.8650    1.0000 </r>
       <r>    1.8947    1.0000 </r>
       <r>    1.9965    1.0000 </r>
       <r>    2.0823    1.0000 </r>
       <r>    2.1646    1.0000 </r>
       <r>    2.3183    1.0000 </r>
       <r>    2.3752    1.0000 </r>
       <r>    2.5012    1.0000 </r>
       <r>    2.8083    1.0000 </r>
       <r>    2.8589    1.0000 </r>
       <r>    2.9199    1.0000 </r>
       <r>    2.9657    1.0000 </r>
       <r>    2.9769    1.0000 </r>
       <r>    3.0710    1.0000 </r>
       <r>    4.2387    0.0000 </r>
       <r>    4.2984    0.0000 </r>
       <r>    4.8476    0.0000 </r>
       <r>    4.9091    0.0000 </r>
       <r>    6.8183    0.0000 </r>
       <r>    7.8588    0.0000 </r>
       <r>    7.9904    0.0000 </r>
       <r>    8.3874    0.0000 </r>
       <r>    8.9334    0.0000 </r>
       <r>    9.7173    0.0000 </r>
       <r>   11.2785    0.0000 </r>
       <r>   11.4813    0.0000 </r>
       <r>   12.2866    0.0000 </r>
       <r>   13.0044    0.0000 </r>
      </set>
      <set comment="kpoint 14">
       <r>  -14.7620    1.0000 </r>
       <r>  -14.6963    1.0000 </r>
       <r>  -14.5374    1.0000 </r>
       <r>  -14.4985    1.0000 </r>
       <r>  -14.1174    1.0000 </r>
       <r>  -14.0683    1.0000 </r>
       <r>  -14.0147    1.0000 </r>
       <r>  -13.9828    1.0000 </r>
       <r>  -13.6586    1.0000 </r>
       <r>  -13.6407    1.0000 </r>
       <r>   -3.3337    1.0000 </r>
       <r>   -3.2752    1.0000 </r>
       <r>   -3.1347    1.0000 </r>
       <r>   -3.0322    1.0000 </r>
       <r>   -2.8827    1.0000 </r>
       <r>   -2.8814    1.0000 </r>
       <r>   -2.6701    1.0000 </r>
       <r>   -2.6129    1.0000 </r>
       <r>   -2.3352    1.0000 </r>
       <r>   -2.2978    1.0000 </r>
       <r>   -2.2612    1.0000 </r>
       <r>   -2.1566    1.0000 </r>
       <r>   -2.1442    1.0000 </r>
       <r>   -1.9902    1.0000 </r>
       <r>   -1.9278    1.0000 </r>
       <r>   -1.8699    1.0000 </r>
       <r>   -1.5453    1.0000 </r>
       <r>   -1.5018    1.0000 </r>
       <r>   -1.3787    1.0000 </r>
       <r>   -1.2189    1.0000 </r>
       <r>   -1.1219    1.0000 </r>
       <r>   -0.9704    1.0000 </r>
       <r>   -0.8306    1.0000 </r>
       <r>   -0.7967    1.0000 </r>
       <r>   -0.5222    1.0000 </r>
       <r>   -0.4284    1.0000 </r>
       <r>   -0.3677    1.0000 </r>
       <r>   -0.3202    1.0000 </r>
       <r>   -0.2513    1.0000 </r>
       <r>   -0.2377    1.0000 </r>
       <r>   -0.1351    1.0000 </r>
       <r>   -0.0963    1.0000 </r>
       <r>   -0.0672    1.0000 </r>
       <r>   -0.0311    1.0000 </r>
[...]
       <r>     8.9146     0.6235    84.0271 </r>
       <r>     9.0249     0.5541    84.0882 </r>
       <r>     9.1353     1.1829    84.2188 </r>
       <r>     9.2457     1.7380    84.4106 </r>
       <r>     9.3561     1.9635    84.6273 </r>
       <r>     9.4664     1.4262    84.7848 </r>
       <r>     9.5768     2.8744    85.1020 </r>
       <r>     9.6872     1.8303    85.3041 </r>
       <r>     9.7976     1.5342    85.4734 </r>
       <r>     9.9080     1.8251    85.6748 </r>
       <r>    10.0183     1.8787    85.8822 </r>
       <r>    10.1287     0.9198    85.9837 </r>
       <r>    10.2391     0.1472    86.0000 </r>
       <r>    10.3495     0.0020    86.0002 </r>
       <r>    10.4598     0.0923    86.0104 </r>
       <r>    10.5702     0.1736    86.0295 </r>
       <r>    10.6806     0.4267    86.0766 </r>
       <r>    10.7910     1.0802    86.1959 </r>
       <r>    10.9013     2.2389    86.4430 </r>
       <r>    11.0117     1.0950    86.5639 </r>
       <r>    11.1221     1.4748    86.7266 </r>
       <r>    11.2325     1.6776    86.9118 </r>
       <r>    11.3429     1.7331    87.1031 </r>
       <r>    11.4532     1.7611    87.2975 </r>
       <r>    11.5636     2.7154    87.5972 </r>
       <r>    11.6740     2.2295    87.8433 </r>
       <r>    11.7844     2.5516    88.1249 </r>
       <r>    11.8947     2.0783    88.3543 </r>
       <r>    12.0051     2.0913    88.5852 </r>
       <r>    12.1155     1.7591    88.7793 </r>
       <r>    12.2259     1.5501    88.9504 </r>
       <r>    12.3362     1.4516    89.1106 </r>
       <r>    12.4466     1.5118    89.2775 </r>
       <r>    12.5570     0.5707    89.3405 </r>
       <r>    12.6674     1.3807    89.4929 </r>
       <r>    12.7778     1.7123    89.6819 </r>
       <r>    12.8881     1.2297    89.8176 </r>
       <r>    12.9985     0.7791    89.9036 </r>
       <r>    13.1089     0.4158    89.9495 </r>
       <r>    13.2193     0.2616    89.9784 </r>
       <r>    13.3296     0.1950    89.9999 </r>
       <r>    13.4400     0.0006    90.0000 </r>
       <r>    13.5504     0.0000    90.0000 </r>
       <r>    13.6608     0.0000    90.0000 </r>
       <r>    13.7711     0.0000    90.0000 </r>
       <r>    13.8815     0.0000    90.0000 </r>
       <r>    13.9919     0.0000    90.0000 </r>
       <r>    14.1023     0.0000    90.0000 </r>
       <r>    14.2127     0.0000    90.0000 </r>
       <r>    14.3230     0.0000    90.0000 </r>
       <r>    14.4334     0.0000    90.0000 </r>
       <r>    14.5438     0.0000    90.0000 </r>
       <r>    14.6542     0.0000    90.0000 </r>
       <r>    14.7645     0.0000    90.0000 </r>
       <r>    14.8749     0.0000    90.0000 </r>
       <r>    14.9853     0.0000    90.0000 </r>
       <r>    15.0957     0.0000    90.0000 </r>
       <r>    15.2060     0.0000    90.0000 </r>
       <r>    15.3164     0.0000    90.0000 </r>
       <r>    15.4268     0.0000    90.0000 </r>
       <r>    15.5372     0.0000    90.0000 </r>
       <r>    15.6476     0.0000    90.0000 </r>
       <r>    15.7579     0.0000    90.0000 </r>
       <r>    15.8683     0.0000    90.0000 </r>
       <r>    15.9787     0.0000    90.0000 </r>
       <r>    16.0891     0.0000    90.0000 </r>
       <r>    16.1994     0.0000    90.0000 </r>
       <r>    16.3098     0.0000    90.0000 </r>
      </set>
      <set comment="spin 2">
       <r>   -16.8033     0.0000     0.0000 </r>
       <r>   -16.6929     0.0000     0.0000 </r>
       <r>   -16.5825     0.0000     0.0000 </r>
       <r>   -16.4721     0.0000     0.0000 </r>
       <r>   -16.3618     0.0000     0.0000 </r>
       <r>   -16.2514     0.0000     0.0000 </r>
       <r>   -16.1410     0.0000     0.0000 </r>
       <r>   -16.0306     0.0000     0.0000 </r>
       <r>   -15.9202     0.0000     0.0000 </r>
       <r>   -15.8099     0.0000     0.0000 </r>
       <r>   -15.6995     0.0000     0.0000 </r>
       <r>   -15.5891     0.0000     0.0000 </r>
       <r>   -15.4787     0.0000     0.0000 </r>
       <r>   -15.3684     0.0000     0.0000 </r>
       <r>   -15.2580     0.0001     0.0000 </r>
       <r>   -15.1476     0.1077     0.0119 </r>
       <r>   -15.0372     1.2069     0.1451 </r>
       <r>   -14.9269     2.6679     0.4396 </r>
       <r>   -14.8165     3.6642     0.8440 </r>
       <r>   -14.7061     4.4151     1.3314 </r>
       <r>   -14.5957     6.4463     2.0429 </r>
       <r>   -14.4853     6.8248     2.7962 </r>
       <r>   -14.3750     5.2345     3.3739 </r>
       <r>   -14.2646     3.4024     3.7495 </r>
       <r>   -14.1542     2.4271     4.0174 </r>
       <r>   -14.0438     1.9058     4.2277 </r>
       <r>   -13.9335    10.0624     5.3384 </r>
       <r>   -13.8231    14.2329     6.9094 </r>
       <r>   -13.7127     9.6850     7.9784 </r>
       <r>   -13.6023     1.2181     8.1128 </r>
       <r>   -13.4920    10.0263     9.2195 </r>
       <r>   -13.3816     6.9091     9.9821 </r>
       <r>   -13.2712     0.1621    10.0000 </r>
       <r>   -13.1608     0.0000    10.0000 </r>
       <r>   -13.0504     0.0000    10.0000 </r>
       <r>   -12.9401     0.0000    10.0000 </r>
       <r>   -12.8297     0.0000    10.0000 </r>
       <r>   -12.7193     0.0000    10.0000 </r>
       <r>   -12.6089     0.0000    10.0000 </r>
       <r>   -12.4986     0.0000    10.0000 </r>
       <r>   -12.3882     0.0000    10.0000 </r>
       <r>   -12.2778     0.0000    10.0000 </r>
       <r>   -12.1674     0.0000    10.0000 </r>
       <r>   -12.0571     0.0000    10.0000 </r>
       <r>   -11.9467     0.0000    10.0000 </r>
       <r>   -11.8363     0.0000    10.0000 </r>
       <r>   -11.7259     0.0000    10.0000 </r>
       <r>   -11.6155     0.0000    10.0000 </r>
       <r>   -11.5052     0.0000    10.0000 </r>
       <r>   -11.3948     0.0000    10.0000 </r>
       <r>   -11.2844     0.0000    10.0000 </r>
       <r>   -11.1740     0.0000    10.0000 </r>
       <r>   -11.0637     0.0000    10.0000 </r>
       <r>   -10.9533     0.0000    10.0000 </r>
       <r>   -10.8429     0.0000    10.0000 </r>
       <r>   -10.7325     0.0000    10.0000 </r>
       <r>   -10.6222     0.0000    10.0000 </r>
       <r>   -10.5118     0.0000    10.0000 </r>
       <r>   -10.4014     0.0000    10.0000 </r>
       <r>   -10.2910     0.0000    10.0000 </r>
       <r>   -10.1806     0.0000    10.0000 </r>
       <r>   -10.0703     0.0000    10.0000 </r>
       <r>    -9.9599     0.0000    10.0000 </r>
       <r>    -9.8495     0.0000    10.0000 </r>
       <r>    -9.7391     0.0000    10.0000 </r>
       <r>    -9.6288     0.0000    10.0000 </r>
       <r>    -9.5184     0.0000    10.0000 </r>
       <r>    -9.4080     0.0000    10.0000 </r>
       <r>    -9.2976     0.0000    10.0000 </r>
       <r>    -9.1873     0.0000    10.0000 </r>
       <r>    -9.0769     0.0000    10.0000 </r>
       <r>    -8.9665     0.0000    10.0000 </r>
       <r>    -8.8561     0.0000    10.0000 </r>
       <r>    -8.7457     0.0000    10.0000 </r>
       <r>    -8.6354     0.0000    10.0000 </r>
       <r>    -8.5250     0.0000    10.0000 </r>
       <r>    -8.4146     0.0000    10.0000 </r>
       <r>    -8.3042     0.0000    10.0000 </r>
       <r>    -8.1939     0.0000    10.0000 </r>
       <r>    -8.0835     0.0000    10.0000 </r>
       <r>    -7.9731     0.0000    10.0000 </r>
       <r>    -7.8627     0.0000    10.0000 </r>
       <r>    -7.7524     0.0000    10.0000 </r>
       <r>    -7.6420     0.0000    10.0000 </r>
       <r>    -7.5316     0.0000    10.0000 </r>
       <r>    -7.4212     0.0000    10.0000 </r>
       <r>    -7.3108     0.0000    10.0000 </r>
       <r>    -7.2005     0.0000    10.0000 </r>
       <r>    -7.0901     0.0000    10.0000 </r>
       <r>    -6.9797     0.0000    10.0000 </r>
       <r>    -6.8693     0.0000    10.0000 </r>
       <r>    -6.7590     0.0000    10.0000 </r>
       <r>    -6.6486     0.0000    10.0000 </r>
       <r>    -6.5382     0.0000    10.0000 </r>
       <r>    -6.4278     0.0000    10.0000 </r>
       <r>    -6.3175     0.0000    10.0000 </r>
       <r>    -6.2071     0.0000    10.0000 </r>
       <r>    -6.0967     0.0000    10.0000 </r>
       <r>    -5.9863     0.0000    10.0000 </r>
       <r>    -5.8759     0.0000    10.0000 </r>
       <r>    -5.7656     0.0000    10.0000 </r>
       <r>    -5.6552     0.0000    10.0000 </r>
       <r>    -5.5448     0.0000    10.0000 </r>
       <r>    -5.4344     0.0000    10.0000 </r>
       <r>    -5.3241     0.0000    10.0000 </r>
       <r>    -5.2137     0.0000    10.0000 </r>
       <r>    -5.1033     0.0000    10.0000 </r>
       <r>    -4.9929     0.0000    10.0000 </r>
       <r>    -4.8826     0.0000    10.0000 </r>
       <r>    -4.7722     0.0000    10.0000 </r>
       <r>    -4.6618     0.0000    10.0000 </r>
       <r>    -4.5514     0.0000    10.0000 </r>
       <r>    -4.4410     0.0000    10.0000 </r>
       <r>    -4.3307     0.0000    10.0000 </r>
       <r>    -4.2203     0.0000    10.0000 </r>
       <r>    -4.1099     0.0000    10.0000 </r>
       <r>    -3.9995     0.0000    10.0000 </r>
       <r>    -3.8892     0.0000    10.0000 </r>
       <r>    -3.7788     0.0000    10.0000 </r>
       <r>    -3.6684     0.0000    10.0000 </r>
       <r>    -3.5580     0.0000    10.0000 </r>
       <r>    -3.4477     0.0000    10.0000 </r>
       <r>    -3.3373     0.0000    10.0000 </r>
       <r>    -3.2269     0.0000    10.0000 </r>
       <r>    -3.1165     0.0000    10.0000 </r>
       <r>    -3.0061     0.0000    10.0000 </r>
       <r>    -2.8958     0.0000    10.0000 </r>
       <r>    -2.7854     0.0000    10.0000 </r>
       <r>    -2.6750     0.0000    10.0000 </r>
       <r>    -2.5646     0.1223    10.0135 </r>
       <r>    -2.4543     1.4320    10.1716 </r>
       <r>    -2.3439     1.3693    10.3227 </r>
       <r>    -2.2335     2.5424    10.6033 </r>
       <r>    -2.1231     1.6775    10.7885 </r>
       <r>    -2.0128     2.3665    11.0497 </r>
       <r>    -1.9024     4.0525    11.4970 </r>
       <r>    -1.7920     6.4182    12.2054 </r>
       <r>    -1.6816     5.6524    12.8293 </r>
       <r>    -1.5712     5.5881    13.4461 </r>
       <r>    -1.4609     5.8696    14.0940 </r>
       <r>    -1.3505     5.9361    14.7492 </r>
       <r>    -1.2401     8.6759    15.7068 </r>
       <r>    -1.1297     9.7391    16.7818 </r>
       <r>    -1.0194     9.2326    17.8009 </r>
       <r>    -0.9090     9.2121    18.8177 </r>
       <r>    -0.7986    10.8573    20.0161 </r>
       <r>    -0.6882     9.5923    21.0748 </r>
       <r>    -0.5779     6.5651    21.7995 </r>
       <r>    -0.4675     6.7038    22.5394 </r>
       <r>    -0.3571     8.0074    23.4232 </r>
       <r>    -0.2467     5.0649    23.9823 </r>
       <r>    -0.1363     7.2139    24.7785 </r>
       <r>    -0.0260     8.3450    25.6996 </r>
       <r>     0.0844     9.1940    26.7144 </r>
       <r>     0.1948     9.1005    27.7189 </r>
       <r>     0.3052     5.6665    28.3444 </r>
       <r>     0.4155     7.7404    29.1987 </r>
       <r>     0.5259     6.7057    29.9389 </r>
       <r>     0.6363     7.8616    30.8066 </r>
       <r>     0.7467    10.3632    31.9505 </r>
       <r>     0.8570     6.7213    32.6923 </r>
       <r>     0.9674     8.8639    33.6707 </r>
       <r>     1.0778     2.8757    33.9881 </r>
       <r>     1.1882     1.2823    34.1297 </r>
       <r>     1.2986     4.0226    34.5737 </r>
       <r>     1.4089     8.2441    35.4836 </r>
       <r>     1.5193     7.4491    36.3058 </r>
       <r>     1.6297     8.7853    37.2755 </r>
       <r>     1.7401     6.3846    37.9802 </r>
       <r>     1.8504     6.7748    38.7280 </r>
       <r>     1.9608     3.4411    39.1078 </r>
       <r>     2.0712     3.6021    39.5054 </r>
       <r>     2.1816     3.9109    39.9371 </r>
       <r>     2.2919     0.5689    39.9999 </r>
       <r>     2.4023     0.0009    40.0000 </r>
       <r>     2.5127     0.0000    40.0000 </r>
       <r>     2.6231     0.0000    40.0000 </r>
       <r>     2.7335     0.0000    40.0000 </r>
       <r>     2.8438     0.0000    40.0000 </r>
       <r>     2.9542     0.0000    40.0000 </r>
       <r>     3.0646     0.0000    40.0000 </r>
       <r>     3.1750     0.0000    40.0000 </r>
       <r>     3.2853     0.0000    40.0000 </r>
       <r>     3.3957     0.0000    40.0000 </r>
       <r>     3.5061     0.0000    40.0000 </r>
       <r>     3.6165     0.0000    40.0000 </r>
       <r>     3.7268     0.0000    40.0000 </r>
       <r>     3.8372     0.0000    40.0000 </r>
       <r>     3.9476     0.0000    40.0000 </r>
       <r>     4.0580     0.0000    40.0000 </r>
       <r>     4.1684     0.0000    40.0000 </r>
       <r>     4.2787     0.0000    40.0000 </r>
       <r>     4.3891     0.0000    40.0000 </r>
       <r>     4.4995     0.0000    40.0000 </r>
       <r>     4.6099     0.0000    40.0000 </r>
       <r>     4.7202     0.0000    40.0000 </r>
       <r>     4.8306     0.0000    40.0000 </r>
       <r>     4.9410     0.0108    40.0012 </r>
       <r>     5.0514     0.1856    40.0217 </r>
       <r>     5.1617     0.3906    40.0648 </r>
       <r>     5.2721     0.8745    40.1613 </r>
       <r>     5.3825     0.9287    40.2638 </r>
       <r>     5.4929     1.0528    40.3800 </r>
       <r>     5.6033     1.5674    40.5530 </r>
       <r>     5.7136     2.4827    40.8271 </r>
       <r>     5.8240     3.0653    41.1654 </r>
       <r>     5.9344     3.3781    41.5383 </r>
       <r>     6.0448     4.8567    42.0743 </r>
       <r>     6.1551     7.2920    42.8792 </r>
       <r>     6.2655     9.5121    43.9291 </r>
       <r>     6.3759    10.7992    45.1211 </r>
       <r>     6.4863    12.7158    46.5246 </r>
       <r>     6.5966    15.0554    48.1864 </r>
       <r>     6.7070    11.6954    49.4773 </r>
       <r>     6.8174    11.1406    50.7070 </r>
       <r>     6.9278    13.0322    52.1454 </r>
       <r>     7.0382    16.1583    53.9289 </r>
       <r>     7.1485    14.5575    55.5357 </r>
       <r>     7.2589    12.7224    56.9400 </r>
       <r>     7.3693    14.5137    58.5420 </r>
       <r>     7.4797    16.3603    60.3478 </r>
       <r>     7.5900    22.5507    62.8368 </r>
       <r>     7.7004    20.7094    65.1227 </r>
       <r>     7.8108    22.5212    67.6085 </r>
       <r>     7.9212    20.4491    69.8656 </r>
       <r>     8.0315    17.9702    71.8491 </r>
       <r>     8.1419    23.2501    74.4154 </r>
       <r>     8.2523    20.3532    76.6619 </r>
       <r>     8.3627    12.1669    78.0048 </r>
       <r>     8.4731     7.1371    78.7926 </r>
       <r>     8.5834     8.1555    79.6928 </r>
       <r>     8.6938     5.4353    80.2927 </r>
       <r>     8.8042     2.1060    80.5252 </r>
       <r>     8.9146     1.7227    80.7153 </r>
       <r>     9.0249     1.5762    80.8893 </r>
       <r>     9.1353     0.2819    80.9204 </r>
       <r>     9.2457     1.1337    81.0456 </r>
       <r>     9.3561     1.1395    81.1713 </r>
       <r>     9.4664     1.7688    81.3666 </r>
       <r>     9.5768     1.3188    81.5121 </r>
       <r>     9.6872     1.0427    81.6272 </r>
       <r>     9.7976     1.7836    81.8241 </r>
       <r>     9.9080     1.4445    81.9835 </r>
       <r>    10.0183     1.6315    82.1636 </r>
       <r>    10.1287     3.1321    82.5093 </r>
       <r>    10.2391     3.2972    82.8733 </r>
       <r>    10.3495     3.4989    83.2594 </r>
       <r>    10.4598     1.7694    83.4548 </r>
       <r>    10.5702     2.6569    83.7480 </r>
       <r>    10.6806     2.4976    84.0237 </r>
       <r>    10.7910     0.9550    84.1291 </r>
       <r>    10.9013     0.8189    84.2195 </r>
       <r>    11.0117     1.5741    84.3932 </r>
       <r>    11.1221     1.8182    84.5939 </r>
       <r>    11.2325     1.4253    84.7512 </r>
       <r>    11.3429     1.4294    84.9090 </r>
       <r>    11.4532     2.4021    85.1741 </r>
       <r>    11.5636     2.8434    85.4880 </r>
       <r>    11.6740     2.3878    85.7515 </r>
       <r>    11.7844     1.0874    85.8716 </r>
       <r>    11.8947     0.4818    85.9247 </r>
       <r>    12.0051     1.5703    86.0981 </r>
       <r>    12.1155     0.8919    86.1965 </r>
       <r>    12.2259     1.5243    86.3647 </r>
       <r>    12.3362     0.7991    86.4530 </r>
       <r>    12.4466     0.8995    86.5522 </r>
       <r>    12.5570     1.1802    86.6825 </r>
       <r>    12.6674     1.9880    86.9019 </r>
       <r>    12.7778     3.0852    87.2425 </r>
       <r>    12.8881     2.1684    87.4818 </r>
       <r>    12.9985     1.5666    87.6547 </r>
       <r>    13.1089     2.3715    87.9165 </r>
       <r>    13.2193     0.7801    88.0026 </r>
       <r>    13.3296     1.8236    88.2039 </r>
       <r>    13.4400     1.8099    88.4036 </r>
       <r>    13.5504     1.1946    88.5355 </r>
       <r>    13.6608     2.0118    88.7575 </r>
       <r>    13.7711     2.0484    88.9836 </r>
       <r>    13.8815     2.0372    89.2085 </r>
       <r>    13.9919     1.4807    89.3719 </r>
       <r>    14.1023     0.5333    89.4308 </r>
       <r>    14.2127     0.5963    89.4966 </r>
       <r>    14.3230     1.1613    89.6248 </r>
       <r>    14.4334     1.8694    89.8311 </r>
       <r>    14.5438     1.1100    89.9537 </r>
       <r>    14.6542     0.0678    89.9611 </r>
       <r>    14.7645     0.2759    89.9916 </r>
       <r>    14.8749     0.0749    89.9999 </r>
       <r>    14.9853     0.0013    90.0000 </r>
       <r>    15.0957     0.0000    90.0000 </r>
       <r>    15.2060     0.0000    90.0000 </r>
       <r>    15.3164     0.0000    90.0000 </r>
       <r>    15.4268     0.0000    90.0000 </r>
       <r>    15.5372     0.0000    90.0000 </r>
       <r>    15.6476     0.0000    90.0000 </r>
       <r>    15.7579     0.0000    90.0000 </r>
       <r>    15.8683     0.0000    90.0000 </r>
       <r>    15.9787     0.0000    90.0000 </r>
       <r>    16.0891     0.0000    90.0000 </r>
       <r>    16.1994     0.0000    90.0000 </r>
       <r>    16.3098     0.0000    90.0000 </r>
      </set>
     </set>
    </array>
   </total>
  </dos>
 </calculation>
 <structure name="finalpos" >
  <crystal>
   <varray name="basis" >
    <v>       3.71689958       0.00000000       0.00000000 </v>
    <v>       0.00000000       5.40775868       0.00000000 </v>
    <v>       0.00000000       0.00000000      10.67930933 </v>
   </varray>
   <i name="volume">    214.65514242 </i>
   <varray name="rec_basis" >
    <v>       0.26904144      -0.00000000       0.00000000 </v>
    <v>       0.00000000       0.18491949       0.00000000 </v>
    <v>      -0.00000000      -0.00000000       0.09363901 </v>
   </varray>
  </crystal>
  <varray name="positions" >
   <v>       0.50000000       0.73172892       0.13278115 </v>
   <v>       0.50000000       0.26827108       0.86721885 </v>
   <v>       0.50000000       0.76827108       0.63278115 </v>
   <v>       0.50000000       0.23172892       0.36721885 </v>
   <v>       0.00000000       0.75298100       0.39726632 </v>
   <v>       0.00000000       0.24701900       0.60273368 </v>
   <v>       0.00000000       0.25298100       0.10273368 </v>
   <v>       0.00000000       0.74701900       0.89726632 </v>
   <v>       0.50000000       0.00000000       0.00000000 </v>
   <v>       0.50000000       0.62202663       0.81209167 </v>
   <v>       0.50000000       0.12202663       0.68790833 </v>
   <v>       0.50000000       0.87797337       0.31209167 </v>
   <v>       0.00000000       0.81410690       0.59620283 </v>
   <v>       0.00000000       0.18589310       0.40379717 </v>
   <v>       0.50000000       0.37797337       0.18790833 </v>
   <v>       0.00000000       0.68589310       0.09620283 </v>
   <v>       0.50000000       0.50000000       0.50000000 </v>
   <v>       0.00000000       0.31410690       0.90379717 </v>
  </varray>
 </structure>
</modeling>
