unknown system                          
           1
     3.716900    0.000000    0.000000
     0.000000    5.407759    0.000000
     0.000000    0.000000   10.679309
   Mn   O 
     8    10
Direct configuration=     1
   0.50000000  0.73172892  0.13278115
   0.50000000  0.26827108  0.86721885
   0.50000000  0.76827108  0.63278115
   0.50000000  0.23172892  0.36721885
   0.00000000  0.75298100  0.39726632
   0.00000000  0.24701900  0.60273368
   0.00000000  0.25298100  0.10273368
   0.00000000  0.74701900  0.89726632
   0.50000000  0.00000000  0.00000000
   0.50000000  0.62202663  0.81209167
   0.50000000  0.12202663  0.68790833
   0.50000000  0.87797337  0.31209167
   0.00000000  0.81410690  0.59620283
   0.00000000  0.18589310  0.40379717
   0.50000000  0.37797337  0.18790833
   0.00000000  0.68589310  0.09620283
   0.50000000  0.50000000  0.50000000
   0.00000000  0.31410690  0.90379717
