------------------------------------------------------------
          Invoking FHI-aims ...

          When using FHI-aims, please cite the following reference:

            Volker Blum, Ralf Gehrke, Felix Hanke, Paula Havu,
            Ville Havu, Xinguo Ren, Karsten Reuter, and Matthias Scheffler,
            'Ab Initio Molecular Simulations with Numeric Atom-Centered Orbitals',
            Computer Physics Communications 180, 2175-2196 (2009)

          In addition, many other developments in FHI-aims are likely important for
          your particular application. A partial list of references is given at the end of
          this file. Thank you for giving credit to the authors of these developments.

          For any questions about FHI-aims, please visit our slack channel at

            https://fhi-aims.slack.com

          and our main development and support site at

            https://aims-git.rz-berlin.mpg.de .

          The latter site, in particular, has a wiki to collect information, as well
          as an issue tracker to log discussions, suggest improvements, and report issues
          or bugs. https://aims-git.rz-berlin.mpg.de is also the main development site
          of the project and all new and updated code versions can be obtained there.
          Please send an email to aims-coordinators@fhi-berlin.mpg.de and we will add
          you to these sites. They are for you and everyone is welcome there.

------------------------------------------------------------



  Date     :  20220916, Time     :  185235.629
  Time zero on CPU 1             :   0.344144000000000E+00  s.
  Internal wall clock time zero  :           432586355.629  s.

  FHI-aims created a unique identifier for this run for later identification
  aims_uuid : 9E8BFDDB-75E3-4DCF-A6BC-F968F08F07DA

  Build configuration of the current instance of FHI-aims
  -------------------------------------------------------
  FHI-aims version      : 210716.2
  Commit number         : GITDIR-NOTFOUND
  CMake host system     : Linux-3.10.0-1062.el7.x86_64
  CMake version         : 3.22.0-rc2
  Fortran compiler      : /opt/ohpc/pub/apps/intel2020/compilers_and_libraries_2020.2.254/linux/mpi/intel64/bin/mpiifort (Intel) version 19.1.2.20200623
  Fortran compiler flags: -O3 -ip -fp-model precise
  C compiler            : /opt/ohpc/pub/apps/intel2020/compilers_and_libraries_2020.2.254/linux/bin/intel64/icc (Intel) version 19.1.2.20200623
  C compiler flags      : -O3 -ip -fp-model precise -std=gnu99
  Using MPI
  Using ScaLAPACK
  Using LibXC
  Using i-PI
  Using RLSY
  Linking against: /opt/ohpc/pub/apps/intel2020/compilers_and_libraries_2020.2.254/linux/mkl/lib/intel64/libmkl_intel_lp64.so
                   /opt/ohpc/pub/apps/intel2020/compilers_and_libraries_2020.2.254/linux/mkl/lib/intel64/libmkl_sequential.so
                   /opt/ohpc/pub/apps/intel2020/compilers_and_libraries_2020.2.254/linux/mkl/lib/intel64/libmkl_core.so
                   /opt/ohpc/pub/apps/intel2020/compilers_and_libraries_2020.2.254/linux/mkl/lib/intel64/libmkl_blacs_intelmpi_lp64.so
                   /opt/ohpc/pub/apps/intel2020/compilers_and_libraries_2020.2.254/linux/mkl/lib/intel64/libmkl_scalapack_lp64.so

  Using      120 parallel tasks.
  Task        0 on host hpcc051 reporting.
  Task        1 on host hpcc051 reporting.
  Task        2 on host hpcc051 reporting.
  Task        3 on host hpcc051 reporting.
  Task        4 on host hpcc051 reporting.
  Task        5 on host hpcc051 reporting.
  Task        6 on host hpcc051 reporting.
  Task        7 on host hpcc051 reporting.
  Task        8 on host hpcc051 reporting.
  Task        9 on host hpcc051 reporting.
  Task       10 on host hpcc051 reporting.
  Task       11 on host hpcc051 reporting.
  Task       12 on host hpcc051 reporting.
  Task       13 on host hpcc051 reporting.
  Task       14 on host hpcc051 reporting.
  Task       15 on host hpcc051 reporting.
  Task       16 on host hpcc051 reporting.
  Task       17 on host hpcc051 reporting.
  Task       18 on host hpcc051 reporting.
  Task       19 on host hpcc051 reporting.
  Task       20 on host hpcc051 reporting.
  Task       21 on host hpcc051 reporting.
  Task       22 on host hpcc051 reporting.
  Task       23 on host hpcc051 reporting.
  Task       24 on host hpcc051 reporting.
  Task       25 on host hpcc051 reporting.
  Task       26 on host hpcc051 reporting.
  Task       27 on host hpcc051 reporting.
  Task       28 on host hpcc051 reporting.
  Task       29 on host hpcc051 reporting.
  Task       30 on host hpcc051 reporting.
  Task       31 on host hpcc051 reporting.
  Task       32 on host hpcc051 reporting.
  Task       33 on host hpcc051 reporting.
  Task       34 on host hpcc051 reporting.
  Task       35 on host hpcc051 reporting.
  Task       36 on host hpcc051 reporting.
  Task       37 on host hpcc051 reporting.
  Task       38 on host hpcc051 reporting.
  Task       39 on host hpcc051 reporting.
  Task       40 on host hpcc098 reporting.
  Task       41 on host hpcc098 reporting.
  Task       42 on host hpcc098 reporting.
  Task       43 on host hpcc098 reporting.
  Task       44 on host hpcc098 reporting.
  Task       45 on host hpcc098 reporting.
  Task       46 on host hpcc098 reporting.
  Task       47 on host hpcc098 reporting.
  Task       48 on host hpcc098 reporting.
  Task       49 on host hpcc098 reporting.
  Task       50 on host hpcc098 reporting.
  Task       51 on host hpcc098 reporting.
  Task       52 on host hpcc098 reporting.
  Task       53 on host hpcc098 reporting.
  Task       54 on host hpcc098 reporting.
  Task       55 on host hpcc098 reporting.
  Task       56 on host hpcc098 reporting.
  Task       57 on host hpcc098 reporting.
  Task       58 on host hpcc098 reporting.
  Task       59 on host hpcc098 reporting.
  Task       60 on host hpcc098 reporting.
  Task       61 on host hpcc098 reporting.
  Task       62 on host hpcc098 reporting.
  Task       63 on host hpcc098 reporting.
  Task       64 on host hpcc098 reporting.
  Task       65 on host hpcc098 reporting.
  Task       66 on host hpcc098 reporting.
  Task       67 on host hpcc098 reporting.
  Task       68 on host hpcc098 reporting.
  Task       69 on host hpcc098 reporting.
  Task       70 on host hpcc098 reporting.
  Task       71 on host hpcc098 reporting.
  Task       72 on host hpcc098 reporting.
  Task       73 on host hpcc098 reporting.
  Task       74 on host hpcc098 reporting.
  Task       75 on host hpcc098 reporting.
  Task       76 on host hpcc098 reporting.
  Task       77 on host hpcc098 reporting.
  Task       78 on host hpcc098 reporting.
  Task       79 on host hpcc098 reporting.
  Task       80 on host hpcc126 reporting.
  Task       81 on host hpcc126 reporting.
  Task       82 on host hpcc126 reporting.
  Task       83 on host hpcc126 reporting.
  Task       84 on host hpcc126 reporting.
  Task       85 on host hpcc126 reporting.
  Task       86 on host hpcc126 reporting.
  Task       87 on host hpcc126 reporting.
  Task       88 on host hpcc126 reporting.
  Task       89 on host hpcc126 reporting.
  Task       90 on host hpcc126 reporting.
  Task       91 on host hpcc126 reporting.
  Task       92 on host hpcc126 reporting.
  Task       93 on host hpcc126 reporting.
  Task       94 on host hpcc126 reporting.
  Task       95 on host hpcc126 reporting.
  Task       96 on host hpcc126 reporting.
  Task       97 on host hpcc126 reporting.
  Task       98 on host hpcc126 reporting.
  Task       99 on host hpcc126 reporting.
  Task      100 on host hpcc126 reporting.
  Task      101 on host hpcc126 reporting.
  Task      102 on host hpcc126 reporting.
  Task      103 on host hpcc126 reporting.
  Task      104 on host hpcc126 reporting.
  Task      105 on host hpcc126 reporting.
  Task      106 on host hpcc126 reporting.
  Task      107 on host hpcc126 reporting.
  Task      108 on host hpcc126 reporting.
  Task      109 on host hpcc126 reporting.
  Task      110 on host hpcc126 reporting.
  Task      111 on host hpcc126 reporting.
  Task      112 on host hpcc126 reporting.
  Task      113 on host hpcc126 reporting.
  Task      114 on host hpcc126 reporting.
  Task      115 on host hpcc126 reporting.
  Task      116 on host hpcc126 reporting.
  Task      117 on host hpcc126 reporting.
  Task      118 on host hpcc126 reporting.
  Task      119 on host hpcc126 reporting.

  Performing system and environment tests:
  *** Environment variable OMP_NUM_THREADS is not set
  *** For performance reasons you might want to set it to 1
  | Checking for ScaLAPACK...
  | Testing pdtran()...
  | All pdtran() tests passed.

  Obtaining array dimensions for all initial allocations:
  
  -----------------------------------------------------------------------
  Parsing control.in (first pass over file, find array dimensions only).
  The contents of control.in will be repeated verbatim below
  unless switched off by setting 'verbatim_writeout .false.' .
  in the first line of control.in .
  -----------------------------------------------------------------------
  
  #===============================================================================
  # FHI-aims file: /home/users/zdcao/learning_hubbard_U/vasp_aims_code/HT_test2/1000255778/hse/control.in
  # Created using the Atomic Simulation Environment (ASE)
  # Fri Sep 16 18:52:34 2022
  #===============================================================================
  output band 0.0 0.0 0.0 	 0.5 0.0 0.0 	 20 	 \Gamma X
  output band 0.5 0.0 0.0 	 0.5 0.5 0.0 	 20 	 X S
  output band 0.5 0.5 0.0 	 0.0 0.5 0.0 	 20 	 S Y
  output band 0.0 0.5 0.0 	 0.0 0.0 0.0 	 20 	 Y \Gamma
  output band 0.0 0.0 0.0 	 0.0 0.0 0.5 	 20 	 \Gamma Z
  output band 0.0 0.0 0.5 	 0.5 0.0 0.5 	 20 	 Z U
  output band 0.5 0.0 0.5 	 0.5 0.5 0.5 	 20 	 U R
  output band 0.5 0.5 0.5 	 0.0 0.5 0.5 	 20 	 R T
  output band 0.0 0.5 0.5 	 0.0 0.0 0.5 	 20 	 T Z
  output band 0.0 0.5 0.0 	 0.0 0.5 0.5 	 20 	 Y T
  output band 0.5 0.0 0.5 	 0.5 0.0 0.0 	 20 	 U X
  output band 0.5 0.5 0.0 	 0.5 0.5 0.5 	 20 	 S R
  exx_band_structure_version         1
  relativistic                       atomic_zora scalar
  k_grid_density                     5
  spin                               collinear
  xc                                 hse06 0.11
  hse_unit                           bohr
  hybrid_xc_coeff                    0.25
  #===============================================================================
  
  ################################################################################
  #
  #  FHI-aims code project
  # Volker Blum, Fritz Haber Institute Berlin, 2010
  #
  #  Suggested "intermediate" defaults for Mn atom (to be pasted into control.in file)
  #
  #  See https://aaltodoc.aalto.fi/handle/123456789/33620 for the report these
  #  setting are based on
  ################################################################################
    species        Mn
  #     global species definitions
      nucleus             25
      mass                54.938045
  #
      l_hartree           6
  #
      cut_pot             4.0          2.0  1.0
      basis_dep_cutoff    1e-4
  #
      radial_base         50 7.0
      radial_multiplier   2
      angular_grids       specified
        division   0.2623   50
        division   0.5927  110
        division   0.9156  194
        division   1.1008  302
        division   1.2671  434
  #      division   1.5167  590
  #      division   1.7111  770
  #      division   1.8945  974
  #      division   2.7372 1202
        outer_grid  434
  ################################################################################
  #
  #  Definition of "minimal" basis
  #
  ################################################################################
  #     valence basis states
      valence      4  s   2.
      valence      3  p   6.
      valence      3  d   5.
  #     ion occupancy
      ion_occ      4  s   1.
      ion_occ      3  p   6.
      ion_occ      3  d   4.
  ################################################################################
  #
  #  Suggested additional basis functions. For production calculations,
  #  uncomment them one after another (the most important basis functions are
  #  listed first).
  #
  #  Constructed for dimers: 1.40 A, 1.60 A, 2.10 A, 2.75 A, 3.75 A
  #
  ################################################################################
  #  "First tier" - improvements: -466.21 meV to -15.27 meV
       hydro 4 f 9.6
       hydro 3 d 3.2
       hydro 2 p 2
       for_aux hydro 5 g 13.6
       hydro 3 s 3.3
  #  "Second tier" - improvements: -21.45 meV to -1.55 meV
  #     hydro 3 d 6
  #     hydro 6 h 19.2
  #     hydro 4 f 6.4
  #     hydro 4 f 17.2
  #     hydro 3 p 3.1
  #     hydro 3 d 6.2
  #     hydro 5 g 10.8
  #     hydro 3 s 3.8
  #  "Third tier" - improvements: -1.38 meV to -0.13 meV
  #     hydro 5 p 8.6   -1.38 meV
  #     hydro 6 h 16    -0.73 meV
  #     hydro 3 d 10.8  -0.43 meV
  #     hydro 5 f 6.8   # forced: -0.26 meV
  #     hydro 5 g 6.4   # forced: -0.21 meV
  #     hydro 5 s 9.8   # forced: -0.13 meV
  #  Further functions: improvements -0.32 meV and below
  #     hydro 3 p 19.6  # -0.32 meV
  #     hydro 5 f 28.4  # -0.20 meV
  #     hydro 4 f 26    # -0.08 meV
  #     hydro 3 p 3.5
  #     hydro 5 g 14.8
  #     hydro 5 s 9
  #     hydro 4 p 16.8
  #     hydro 6 h 18
  #     hydro 4 d 13.6
  ################################################################################
  #
  #  FHI-aims code project
  #  Volker Blum, 2017
  #
  #  Suggested "intermediate" defaults for O atom (to be pasted into control.in file)
  #
  ################################################################################
    species        O
  #     global species definitions
      nucleus             8
      mass                15.9994
  #
      l_hartree           6
  #
      cut_pot             4.0  2.0  1.0
      basis_dep_cutoff    1e-4
  #
      radial_base         36 7.0
      radial_multiplier   2
       angular_grids specified
        division   0.1817   50
        division   0.3417  110
        division   0.4949  194
        division   0.6251  302
        division   0.8014  434
  #      division   0.8507  590
  #      division   0.8762  770
  #      division   0.9023  974
  #      division   1.2339 1202
  #      outer_grid 974
        outer_grid  434
  ################################################################################
  #
  #  Definition of "minimal" basis
  #
  ################################################################################
  #     valence basis states
      valence      2  s   2.
      valence      2  p   4.
  #     ion occupancy
      ion_occ      2  s   1.
      ion_occ      2  p   3.
  ################################################################################
  #
  #  Suggested additional basis functions. For production calculations,
  #  uncomment them one after another (the most important basis functions are
  #  listed first).
  #
  #  Constructed for dimers: 1.0 A, 1.208 A, 1.5 A, 2.0 A, 3.0 A
  #
  ################################################################################
  #  "First tier" - improvements: -699.05 meV to -159.38 meV
       hydro 2 p 1.8
       hydro 3 d 7.6
       hydro 3 s 6.4
  #  "Second tier" - improvements: -49.91 meV to -5.39 meV
  #     hydro 4 f 11.6
  #     hydro 3 p 6.2
  #     hydro 3 d 5.6
  #  for_aux    hydro 5 g 17.6
  #     hydro 1 s 0.75
  #  "Third tier" - improvements: -2.83 meV to -0.50 meV
  #     ionic 2 p auto
  #     hydro 4 f 10.8
  #     hydro 4 d 4.7
  #     hydro 2 s 6.8
  #  "Fourth tier" - improvements: -0.40 meV to -0.12 meV
  #     hydro 3 p 5
  #     hydro 3 s 3.3
  #     hydro 5 g 15.6
  #     hydro 4 f 17.6
  #     hydro 4 d 14
  # Further basis functions - -0.08 meV and below
  #     hydro 3 s 2.1
  #     hydro 4 d 11.6
  #     hydro 3 p 16
  #     hydro 2 s 17.2
  
  -----------------------------------------------------------------------
  Completed first pass over input file control.in .
  -----------------------------------------------------------------------
  
  
  -----------------------------------------------------------------------
  Parsing geometry.in (first pass over file, find array dimensions only).
  The contents of geometry.in will be repeated verbatim below
  unless switched off by setting 'verbatim_writeout .false.' .
  in the first line of geometry.in .
  -----------------------------------------------------------------------
  
  #=======================================================
  # FHI-aims file: /home/users/zdcao/learning_hubbard_U/vasp_aims_code/HT_test2/1000255778/hse/geometry.in
  # Created using the Atomic Simulation Environment (ASE)
  # Fri Sep 16 18:52:34 2022
  #=======================================================
  lattice_vector 3.7168995800034805 0.0000000000000000 0.0000000000000002
  lattice_vector 0.0000000000000009 5.4077586807044531 0.0000000000000003
  lattice_vector 0.0000000000000000 0.0000000000000000 10.6793093300406348
  atom_frac 0.5000000000000000 0.7317289250000000 0.1327811450000000 Mn
      initial_moment         4.000000
  atom_frac 0.5000000000000000 0.2682710750000000 0.8672188550000000 Mn
      initial_moment         4.000000
  atom_frac 0.5000000000000000 0.7682710750000000 0.6327811450000000 Mn
      initial_moment         4.000000
  atom_frac 0.5000000000000000 0.2317289250000001 0.3672188550000000 Mn
      initial_moment         4.000000
  atom_frac 0.0000000000000000 0.7529809949999999 0.3972663249999999 Mn
      initial_moment         4.000000
  atom_frac 0.0000000000000000 0.2470190050000001 0.6027336750000001 Mn
      initial_moment         4.000000
  atom_frac 0.0000000000000000 0.2529809949999999 0.1027336750000001 Mn
      initial_moment         4.000000
  atom_frac 0.0000000000000000 0.7470190050000001 0.8972663249999999 Mn
      initial_moment         4.000000
  atom_frac 0.5000000000000000 0.0000000000000000 0.0000000000000000 O
  atom_frac 0.5000000000000000 0.6220266350000000 0.8120916750000000 O
  atom_frac 0.5000000000000000 0.1220266350000001 0.6879083250000000 O
  atom_frac 0.5000000000000000 0.8779733650000000 0.3120916750000000 O
  atom_frac 0.0000000000000000 0.8141068950000000 0.5962028350000000 O
  atom_frac 0.0000000000000000 0.1858931050000000 0.4037971650000000 O
  atom_frac 0.5000000000000000 0.3779733650000000 0.1879083250000000 O
  atom_frac 0.0000000000000000 0.6858931050000000 0.0962028350000002 O
  atom_frac 0.5000000000000000 0.5000000000000000 0.5000000000000000 O
  atom_frac 0.0000000000000000 0.3141068950000001 0.9037971650000000 O
  
  -----------------------------------------------------------------------
  Completed first pass over input file geometry.in .
  -----------------------------------------------------------------------
  

  Basic array size parameters:
  | Number of species                 :        2
  | Number of atoms                   :       18
  | Number of lattice vectors         :        3
  | Max. basis fn. angular momentum   :        4
  | Max. atomic/ionic basis occupied n:        4
  | Max. number of basis fn. types    :        2
  | Max. radial fns per species/type  :        7
  | Max. logarithmic grid size        :     1394
  | Max. radial integration grid size :      101
  | Max. angular integration grid size:      434
  | Max. angular grid division number :        8
  | Radial grid for Hartree potential :     1394
  | Number of spin channels           :        2

------------------------------------------------------------
          Reading file control.in.
------------------------------------------------------------

  Plot band    1
  | begin  0.000000  0.000000  0.000000
  | end    0.500000  0.000000  0.000000
  | number of points:   20

  Plot band    2
  | begin  0.500000  0.000000  0.000000
  | end    0.500000  0.500000  0.000000
  | number of points:   20

  Plot band    3
  | begin  0.500000  0.500000  0.000000
  | end    0.000000  0.500000  0.000000
  | number of points:   20

  Plot band    4
  | begin  0.000000  0.500000  0.000000
  | end    0.000000  0.000000  0.000000
  | number of points:   20

  Plot band    5
  | begin  0.000000  0.000000  0.000000
  | end    0.000000  0.000000  0.500000
  | number of points:   20

  Plot band    6
  | begin  0.000000  0.000000  0.500000
  | end    0.500000  0.000000  0.500000
  | number of points:   20

  Plot band    7
  | begin  0.500000  0.000000  0.500000
  | end    0.500000  0.500000  0.500000
  | number of points:   20

  Plot band    8
  | begin  0.500000  0.500000  0.500000
  | end    0.000000  0.500000  0.500000
  | number of points:   20

  Plot band    9
  | begin  0.000000  0.500000  0.500000
  | end    0.000000  0.000000  0.500000
  | number of points:   20

  Plot band   10
  | begin  0.000000  0.500000  0.000000
  | end    0.000000  0.500000  0.500000
  | number of points:   20

  Plot band   11
  | begin  0.500000  0.000000  0.500000
  | end    0.500000  0.000000  0.000000
  | number of points:   20

  Plot band   12
  | begin  0.500000  0.500000  0.000000
  | end    0.500000  0.500000  0.500000
  | number of points:   20
  Scalar relativistic treatment of kinetic energy: on-site free-atom approximation to ZORA.
  Found k-point grid density (nkpts / Angstrom^-1):   5.00000
  Spin treatment: Spin density functional theory - collinear spins.

  XC: Using HSE-functional with OMEGA =  0.110000E+00 <units>.
  XC: For the actual units (bohr^-1 or Angstrom^-1), see below.
  hse_unit: Unit for the HSE06 hybrid functional screening parameter set to bohr^(-1).
  hybrid_xc_coeff: Mixing coefficient for hybrid-functional exact exchange modified to         0.25000000 .
  * WARNING: This change modifies the chosen exchange-correlation functional (keyword 'xc')
  * from its literature definition. Be sure to NEVER include such a line in any default control.in files!
 
  Reading configuration options for species Mn                  .
  | Found nuclear charge :  25.0000
  | Found atomic mass :    54.9380450000000      amu
  | Found l_max for Hartree potential  :   6
  | Found cutoff potl. onset [A], width [A], scale factor :    4.00000    2.00000    1.00000
  | Threshold for basis-dependent cutoff potential is   0.100000E-03
  | Found data for basic radial integration grid :    50 points, outermost radius =    7.000 A
  | Found multiplier for basic radial grid :   2
  | Found angular grid specification: user-specified.
  | Specified grid contains     6 separate shells.
  | Check grid settings after all constraints further below.
  | Found free-atom valence shell :  4 s   2.000
  | Found free-atom valence shell :  3 p   6.000
  | Found free-atom valence shell :  3 d   5.000
  | No ionic wave fns used. Skipping ion_occ.
  | No ionic wave fns used. Skipping ion_occ.
  | No ionic wave fns used. Skipping ion_occ.
  | Found hydrogenic basis function :  4 f   9.600
  | Found hydrogenic basis function :  3 d   3.200
  | Found hydrogenic basis function :  2 p   2.000
  | Found hydrogenic extended basis function :  5 g  13.600
  | Found hydrogenic basis function :  3 s   3.300
  Species Mn                  : Missing cutoff potential type.
  Defaulting to exp(1/x)/(1-x)^2 type cutoff potential.
  Species Mn: No 'logarithmic' tag. Using default grid for free atom:
  | Default logarithmic grid data [bohr] : 0.1000E-03 0.1000E+03 0.1012E+01
  Species Mn: On-site basis accuracy parameter (for Gram-Schmidt orthonormalisation) not specified.
  Using default value basis_acc =  0.1000000E-03.
  Species Mn                  : Using default innermost maximum threshold i_radial=  2 for radial functions.
  Species Mn                  : Default cutoff onset for free atom density etc. : 0.40000000E+01 AA.
  Species Mn                  : Basic radial grid will be enhanced according to radial_multiplier =   2, to contain   101 grid points.
 
  Reading configuration options for species O                   .
  | Found nuclear charge :   8.0000
  | Found atomic mass :    15.9994000000000      amu
  | Found l_max for Hartree potential  :   6
  | Found cutoff potl. onset [A], width [A], scale factor :    4.00000    2.00000    1.00000
  | Threshold for basis-dependent cutoff potential is   0.100000E-03
  | Found data for basic radial integration grid :    36 points, outermost radius =    7.000 A
  | Found multiplier for basic radial grid :   2
  | Found angular grid specification: user-specified.
  | Specified grid contains     6 separate shells.
  | Check grid settings after all constraints further below.
  | Found free-atom valence shell :  2 s   2.000
  | Found free-atom valence shell :  2 p   4.000
  | No ionic wave fns used. Skipping ion_occ.
  | No ionic wave fns used. Skipping ion_occ.
  | Found hydrogenic basis function :  2 p   1.800
  | Found hydrogenic basis function :  3 d   7.600
  | Found hydrogenic basis function :  3 s   6.400
  Species O                   : Missing cutoff potential type.
  Defaulting to exp(1/x)/(1-x)^2 type cutoff potential.
  Species O : No 'logarithmic' tag. Using default grid for free atom:
  | Default logarithmic grid data [bohr] : 0.1000E-03 0.1000E+03 0.1012E+01
  Species O : On-site basis accuracy parameter (for Gram-Schmidt orthonormalisation) not specified.
  Using default value basis_acc =  0.1000000E-03.
  Species O                   : Using default innermost maximum threshold i_radial=  2 for radial functions.
  Species O                   : Default cutoff onset for free atom density etc. : 0.40000000E+01 AA.
  Species O                   : Basic radial grid will be enhanced according to radial_multiplier =   2, to contain    73 grid points.
 
  Finished reading input file 'control.in'.
 
------------------------------------------------------------


------------------------------------------------------------
          Reading geometry description geometry.in.
------------------------------------------------------------
  | The smallest distance between any two atoms is         1.91516770 AA.
  | The first atom of this pair is atom number                      1 .
  | The second atom of this pair is atom number                    16 .
  | Wigner-Seitz cell of the first atom image           0     0     0 .
  | (The Wigner-Seitz cell of the second atom is 0 0 0  by definition.)

  Symmetry information by spglib:
  | Precision set to  0.1E-04
  | Number of Operations  : 8
  | Space group           : 55
  | International         : Pbam
  | Schoenflies           : D2h^9
  Input structure read successfully.
  The structure contains       18 atoms,  and a total of        280.000 electrons.

  Input geometry:
  | Unit cell:
  |        3.71689958        0.00000000        0.00000000
  |        0.00000000        5.40775868        0.00000000
  |        0.00000000        0.00000000       10.67930933
  | Atomic structure:
  |       Atom                x [A]            y [A]            z [A]
  |    1: Species Mn            1.85844979        3.95701345        1.41801092
  |    2: Species Mn            1.85844979        1.45074523        9.26129841
  |    3: Species Mn            1.85844979        4.15462457        6.75766559
  |    4: Species Mn            1.85844979        1.25313411        3.92164374
  |    5: Species Mn            0.00000000        4.07193951        4.24252997
  |    6: Species Mn            0.00000000        1.33581917        6.43677936
  |    7: Species Mn            0.00000000        1.36806017        1.09712469
  |    8: Species Mn            0.00000000        4.03969851        9.58218464
  |    9: Species O             1.85844979        0.00000000        0.00000000
  |   10: Species O             1.85844979        3.36376994        8.67257820
  |   11: Species O             1.85844979        0.65989059        7.34638579
  |   12: Species O             1.85844979        4.74786809        3.33292354
  |   13: Species O             0.00000000        4.40249363        6.36703450
  |   14: Species O             0.00000000        1.00526505        4.31227483
  |   15: Species O             1.85844979        2.04398875        2.00673113
  |   16: Species O             0.00000000        3.70914439        1.02737983
  |   17: Species O             1.85844979        2.70387934        5.33965467
  |   18: Species O             0.00000000        1.69861429        9.65192950

  Lattice parameters for 3D lattice (in Angstroms) :     3.716900    5.407759   10.679309
  Angle(s) between unit vectors (in degrees)       :    90.000000   90.000000   90.000000


  Quantities derived from the lattice vectors:
  | Reciprocal lattice vector 1:  1.690437 -0.000000 -0.000000
  | Reciprocal lattice vector 2:  0.000000  1.161883  0.000000
  | Reciprocal lattice vector 3: -0.000000 -0.000000  0.588351
  | Unit cell volume                               :   0.214655E+03  A^3

  Fractional coordinates:
                         L1                L2                L3
       atom_frac         0.50000000        0.73172892        0.13278114  Mn
       atom_frac         0.50000000        0.26827108        0.86721885  Mn
       atom_frac         0.50000000        0.76827108        0.63278114  Mn
       atom_frac         0.50000000        0.23172893        0.36721886  Mn
       atom_frac         0.00000000        0.75298099        0.39726632  Mn
       atom_frac        -0.00000000        0.24701901        0.60273367  Mn
       atom_frac        -0.00000000        0.25298099        0.10273368  Mn
       atom_frac        -0.00000000        0.74701901        0.89726632  Mn
       atom_frac         0.50000000        0.00000000       -0.00000000  O
       atom_frac         0.50000000        0.62202664        0.81209168  O
       atom_frac         0.50000000        0.12202664        0.68790832  O
       atom_frac         0.50000000        0.87797337        0.31209167  O
       atom_frac        -0.00000000        0.81410689        0.59620284  O
       atom_frac        -0.00000000        0.18589311        0.40379717  O
       atom_frac         0.50000000        0.37797337        0.18790832  O
       atom_frac        -0.00000000        0.68589311        0.09620284  O
       atom_frac         0.50000000        0.50000000        0.50000000  O
       atom_frac        -0.00000000        0.31410690        0.90379716  O

  Initial moments and charges:
  |  Atom   Moment         Charge        Species
  |     1   0.400000E+01   0.000000E+00   Mn
  |     2   0.400000E+01   0.000000E+00   Mn
  |     3   0.400000E+01   0.000000E+00   Mn
  |     4   0.400000E+01   0.000000E+00   Mn
  |     5   0.400000E+01   0.000000E+00   Mn
  |     6   0.400000E+01   0.000000E+00   Mn
  |     7   0.400000E+01   0.000000E+00   Mn
  |     8   0.400000E+01   0.000000E+00   Mn
  |     9   0.000000E+00   0.000000E+00   O
  |    10   0.000000E+00   0.000000E+00   O
  |    11   0.000000E+00   0.000000E+00   O
  |    12   0.000000E+00   0.000000E+00   O
  |    13   0.000000E+00   0.000000E+00   O
  |    14   0.000000E+00   0.000000E+00   O
  |    15   0.000000E+00   0.000000E+00   O
  |    16   0.000000E+00   0.000000E+00   O
  |    17   0.000000E+00   0.000000E+00   O
  |    18   0.000000E+00   0.000000E+00   O

 
  Finished reading input file 'control.in'.
 

------------------------------------------------------------
          Reading geometry description geometry.in.
------------------------------------------------------------
 
  Consistency checks for stacksize environment parameter are next.
 
  | Maximum stacksize for task 0: unlimited
  | Maximum stacksize for task 1: unlimited
  | Maximum stacksize for task 2: unlimited
  | Maximum stacksize for task 3: unlimited
  | Maximum stacksize for task 4: unlimited
  | Maximum stacksize for task 5: unlimited
  | Maximum stacksize for task 6: unlimited
  | Maximum stacksize for task 7: unlimited
  | Maximum stacksize for task 8: unlimited
  | Maximum stacksize for task 9: unlimited
  | Maximum stacksize for task 10: unlimited
  | Maximum stacksize for task 11: unlimited
  | Maximum stacksize for task 12: unlimited
  | Maximum stacksize for task 13: unlimited
  | Maximum stacksize for task 14: unlimited
  | Maximum stacksize for task 15: unlimited
  | Maximum stacksize for task 16: unlimited
  | Maximum stacksize for task 17: unlimited
  | Maximum stacksize for task 18: unlimited
  | Maximum stacksize for task 19: unlimited
  | Maximum stacksize for task 20: unlimited
  | Maximum stacksize for task 21: unlimited
  | Maximum stacksize for task 22: unlimited
  | Maximum stacksize for task 23: unlimited
  | Maximum stacksize for task 24: unlimited
  | Maximum stacksize for task 25: unlimited
  | Maximum stacksize for task 26: unlimited
  | Maximum stacksize for task 27: unlimited
  | Maximum stacksize for task 28: unlimited
  | Maximum stacksize for task 29: unlimited
  | Maximum stacksize for task 30: unlimited
  | Maximum stacksize for task 31: unlimited
  | Maximum stacksize for task 32: unlimited
  | Maximum stacksize for task 33: unlimited
  | Maximum stacksize for task 34: unlimited
  | Maximum stacksize for task 35: unlimited
  | Maximum stacksize for task 36: unlimited
  | Maximum stacksize for task 37: unlimited
  | Maximum stacksize for task 38: unlimited
  | Maximum stacksize for task 39: unlimited
  | Maximum stacksize for task 40: unlimited
  | Maximum stacksize for task 41: unlimited
  | Maximum stacksize for task 42: unlimited
  | Maximum stacksize for task 43: unlimited
  | Maximum stacksize for task 44: unlimited
  | Maximum stacksize for task 45: unlimited
  | Maximum stacksize for task 46: unlimited
  | Maximum stacksize for task 47: unlimited
  | Maximum stacksize for task 48: unlimited
  | Maximum stacksize for task 49: unlimited
  | Maximum stacksize for task 50: unlimited
  | Maximum stacksize for task 51: unlimited
  | Maximum stacksize for task 52: unlimited
  | Maximum stacksize for task 53: unlimited
  | Maximum stacksize for task 54: unlimited
  | Maximum stacksize for task 55: unlimited
  | Maximum stacksize for task 56: unlimited
  | Maximum stacksize for task 57: unlimited
  | Maximum stacksize for task 58: unlimited
  | Maximum stacksize for task 59: unlimited
  | Maximum stacksize for task 60: unlimited
  | Maximum stacksize for task 61: unlimited
  | Maximum stacksize for task 62: unlimited
  | Maximum stacksize for task 63: unlimited
  | Maximum stacksize for task 64: unlimited
  | Maximum stacksize for task 65: unlimited
  | Maximum stacksize for task 66: unlimited
  | Maximum stacksize for task 67: unlimited
  | Maximum stacksize for task 68: unlimited
  | Maximum stacksize for task 69: unlimited
  | Maximum stacksize for task 70: unlimited
  | Maximum stacksize for task 71: unlimited
  | Maximum stacksize for task 72: unlimited
  | Maximum stacksize for task 73: unlimited
  | Maximum stacksize for task 74: unlimited
  | Maximum stacksize for task 75: unlimited
  | Maximum stacksize for task 76: unlimited
  | Maximum stacksize for task 77: unlimited
  | Maximum stacksize for task 78: unlimited
  | Maximum stacksize for task 79: unlimited
  | Maximum stacksize for task 80: unlimited
  | Maximum stacksize for task 81: unlimited
  | Maximum stacksize for task 82: unlimited
  | Maximum stacksize for task 83: unlimited
  | Maximum stacksize for task 84: unlimited
  | Maximum stacksize for task 85: unlimited
  | Maximum stacksize for task 86: unlimited
  | Maximum stacksize for task 87: unlimited
  | Maximum stacksize for task 88: unlimited
  | Maximum stacksize for task 89: unlimited
  | Maximum stacksize for task 90: unlimited
  | Maximum stacksize for task 91: unlimited
  | Maximum stacksize for task 92: unlimited
  | Maximum stacksize for task 93: unlimited
  | Maximum stacksize for task 94: unlimited
  | Maximum stacksize for task 95: unlimited
  | Maximum stacksize for task 96: unlimited
  | Maximum stacksize for task 97: unlimited
  | Maximum stacksize for task 98: unlimited
  | Maximum stacksize for task 99: unlimited
  | Maximum stacksize for task 100: unlimited
  | Maximum stacksize for task 101: unlimited
  | Maximum stacksize for task 102: unlimited
  | Maximum stacksize for task 103: unlimited
  | Maximum stacksize for task 104: unlimited
  | Maximum stacksize for task 105: unlimited
  | Maximum stacksize for task 106: unlimited
  | Maximum stacksize for task 107: unlimited
  | Maximum stacksize for task 108: unlimited
  | Maximum stacksize for task 109: unlimited
  | Maximum stacksize for task 110: unlimited
  | Maximum stacksize for task 111: unlimited
  | Maximum stacksize for task 112: unlimited
  | Maximum stacksize for task 113: unlimited
  | Maximum stacksize for task 114: unlimited
  | Maximum stacksize for task 115: unlimited
  | Maximum stacksize for task 116: unlimited
  | Maximum stacksize for task 117: unlimited
  | Maximum stacksize for task 118: unlimited
  | Maximum stacksize for task 119: unlimited
  | Current stacksize for task 0: unlimited
  | Current stacksize for task 1: unlimited
  | Current stacksize for task 2: unlimited
  | Current stacksize for task 3: unlimited
  | Current stacksize for task 4: unlimited
  | Current stacksize for task 5: unlimited
  | Current stacksize for task 6: unlimited
  | Current stacksize for task 7: unlimited
  | Current stacksize for task 8: unlimited
  | Current stacksize for task 9: unlimited
  | Current stacksize for task 10: unlimited
  | Current stacksize for task 11: unlimited
  | Current stacksize for task 12: unlimited
  | Current stacksize for task 13: unlimited
  | Current stacksize for task 14: unlimited
  | Current stacksize for task 15: unlimited
  | Current stacksize for task 16: unlimited
  | Current stacksize for task 17: unlimited
  | Current stacksize for task 18: unlimited
  | Current stacksize for task 19: unlimited
  | Current stacksize for task 20: unlimited
  | Current stacksize for task 21: unlimited
  | Current stacksize for task 22: unlimited
  | Current stacksize for task 23: unlimited
  | Current stacksize for task 24: unlimited
  | Current stacksize for task 25: unlimited
  | Current stacksize for task 26: unlimited
  | Current stacksize for task 27: unlimited
  | Current stacksize for task 28: unlimited
  | Current stacksize for task 29: unlimited
  | Current stacksize for task 30: unlimited
  | Current stacksize for task 31: unlimited
  | Current stacksize for task 32: unlimited
  | Current stacksize for task 33: unlimited
  | Current stacksize for task 34: unlimited
  | Current stacksize for task 35: unlimited
  | Current stacksize for task 36: unlimited
  | Current stacksize for task 37: unlimited
  | Current stacksize for task 38: unlimited
  | Current stacksize for task 39: unlimited
  | Current stacksize for task 40: unlimited
  | Current stacksize for task 41: unlimited
  | Current stacksize for task 42: unlimited
  | Current stacksize for task 43: unlimited
  | Current stacksize for task 44: unlimited
  | Current stacksize for task 45: unlimited
  | Current stacksize for task 46: unlimited
  | Current stacksize for task 47: unlimited
  | Current stacksize for task 48: unlimited
  | Current stacksize for task 49: unlimited
  | Current stacksize for task 50: unlimited
  | Current stacksize for task 51: unlimited
  | Current stacksize for task 52: unlimited
  | Current stacksize for task 53: unlimited
  | Current stacksize for task 54: unlimited
  | Current stacksize for task 55: unlimited
  | Current stacksize for task 56: unlimited
  | Current stacksize for task 57: unlimited
  | Current stacksize for task 58: unlimited
  | Current stacksize for task 59: unlimited
  | Current stacksize for task 60: unlimited
  | Current stacksize for task 61: unlimited
  | Current stacksize for task 62: unlimited
  | Current stacksize for task 63: unlimited
  | Current stacksize for task 64: unlimited
  | Current stacksize for task 65: unlimited
  | Current stacksize for task 66: unlimited
  | Current stacksize for task 67: unlimited
  | Current stacksize for task 68: unlimited
  | Current stacksize for task 69: unlimited
  | Current stacksize for task 70: unlimited
  | Current stacksize for task 71: unlimited
  | Current stacksize for task 72: unlimited
  | Current stacksize for task 73: unlimited
  | Current stacksize for task 74: unlimited
  | Current stacksize for task 75: unlimited
  | Current stacksize for task 76: unlimited
  | Current stacksize for task 77: unlimited
  | Current stacksize for task 78: unlimited
  | Current stacksize for task 79: unlimited
  | Current stacksize for task 80: unlimited
  | Current stacksize for task 81: unlimited
  | Current stacksize for task 82: unlimited
  | Current stacksize for task 83: unlimited
  | Current stacksize for task 84: unlimited
  | Current stacksize for task 85: unlimited
  | Current stacksize for task 86: unlimited
  | Current stacksize for task 87: unlimited
  | Current stacksize for task 88: unlimited
  | Current stacksize for task 89: unlimited
  | Current stacksize for task 90: unlimited
  | Current stacksize for task 91: unlimited
  | Current stacksize for task 92: unlimited
  | Current stacksize for task 93: unlimited
  | Current stacksize for task 94: unlimited
  | Current stacksize for task 95: unlimited
  | Current stacksize for task 96: unlimited
  | Current stacksize for task 97: unlimited
  | Current stacksize for task 98: unlimited
  | Current stacksize for task 99: unlimited
  | Current stacksize for task 100: unlimited
  | Current stacksize for task 101: unlimited
  | Current stacksize for task 102: unlimited
  | Current stacksize for task 103: unlimited
  | Current stacksize for task 104: unlimited
  | Current stacksize for task 105: unlimited
  | Current stacksize for task 106: unlimited
  | Current stacksize for task 107: unlimited
  | Current stacksize for task 108: unlimited
  | Current stacksize for task 109: unlimited
  | Current stacksize for task 110: unlimited
  | Current stacksize for task 111: unlimited
  | Current stacksize for task 112: unlimited
  | Current stacksize for task 113: unlimited
  | Current stacksize for task 114: unlimited
  | Current stacksize for task 115: unlimited
  | Current stacksize for task 116: unlimited
  | Current stacksize for task 117: unlimited
  | Current stacksize for task 118: unlimited
  | Current stacksize for task 119: unlimited
 
  Consistency checks for the contents of control.in are next.
 
  Using k-point grid density (nkpts / Angstrom^-1):   5.00000
  The resulting k-point grid is:         9         6         3
  HSE06 screening parameters: omega_HF  =      0.11000000 bohr^-1, and
                              omega_PBE =      0.11000000 bohr^-1.
  MPI_IN_PLACE appears to work with this MPI implementation.
  | Keeping use_mpi_in_place .true. (see manual).
  Explicit treatment of the Coulomb operator is needed, but the RI method is not specified.
  Coulomb operator: Defaulting to 'LVL fast' resolution of identity - RI_type = LVL_fast
  Species Mn: Using default value for prodbas_acc =   1.000000E-04.
  Species Mn: Using default value max_l_prodbas =    20.
  Species O: Using default value for prodbas_acc =   1.000000E-04.
  Species O: Using default value max_l_prodbas =    20.
  Target number of points in a grid batch is not set. Defaulting to  100
  Method for grid partitioning is not set. Defaulting to parallel hash+maxmin partitioning.
  Batch size limit is not set. Defaulting to    200
  By default, will store active basis functions for each batch.
  If in need of memory, prune_basis_once .false. can be used to disable this option.
  communication_type for Hartree potential was not specified.
  Defaulting to calc_hartree .
  Defaulting to Pulay charge density mixer.
  Pulay mixer: Number of relevant iterations not set.
  Defaulting to    8 iterations.
  Pulay mixer: Number of initial linear mixing iterations not set.
  Defaulting to    0 iterations.
  Work space size for distributed Hartree potential not set.
  Defaulting to   0.200000E+03 MB.
  Mixing parameter for charge density mixing has not been set.
  Using default: charge_mix_param =     0.0500.
  The mixing parameter will be adjusted in iteration number     2 of the first full s.c.f. cycle only.
  Mixing parameter for spin density mixing has not been set.
  Using charge_mix_param as default:     0.0500.
  Algorithm-dependent basis array size parameters:
  | n_max_pulay                         :        8
  Maximum number of self-consistency iterations not provided.
  Presetting  1000 iterations.
  Presetting      1001 iterations before the initial mixing cycle
  is restarted anyway using the sc_init_iter criterion / keyword.
  Presetting a factor      1.000 between actual scf density residual
  and density convergence criterion sc_accuracy_rho below which sc_init_iter
  takes no effect.
 * No s.c.f. convergence criteria (sc_accuracy_*) were provided in control.in.
 * The run will proceed with a reasonable default guess, but please check whether.
 * the s.c.f. cycles seem to take too much or too little time.
  Calculation of forces was not defined in control.in. No forces will be calculated.
  Geometry relaxation not requested: no relaxation will be performed.
 * Notice: The s.c.f. convergence criterion sc_accuracy_rho was not provided.
 * We used to stop in this case, and ask the user to provide reasonable
 * scf convergence criteria. However, this led some users to employ criteria
 * that led to extremely long run times, e.g., for simple relaxation.
 * We now preset a default value for sc_accuracy_rho if it is not set.
 * You may still wish to check if this setting is too tight or too loose for your needs.
 * Based on n_atoms and forces and force-correction status, FHI-aims chose sc_accuracy_rho =  0.173205E-05 .
  No accuracy limit for integral partition fn. given. Defaulting to  0.1000E-14.
  No threshold value for u(r) in integrations given. Defaulting to  0.1000E-05.
  No occupation type (smearing scheme) given. Defaulting to Gaussian broadening, width =  0.1000E-01 eV.
  The width will be adjusted in iteration number     2 of the first full s.c.f. cycle only.
  S.C.F. convergence parameters will be adjusted in iteration number     2 of the first full s.c.f. cycle only.
  No accuracy for occupation numbers given. Defaulting to  0.1000E-12.
  No threshold value for occupation numbers given. Defaulting to  0.0000E+00.
  No accuracy for fermi level given. Defaulting to  0.1000E-19.
  Maximum # of iterations to find E_F not set. Defaulting to  200.
  Preferred method for the eigenvalue solver ('KS_method') not specified in 'control.in'.
  Defaulting to serial version, LAPACK (via ELSI), since more k-points than CPUs available.
  Will not use alltoall communication since running on < 1024 CPUs.
  Threshold for basis singularities not set.
  Default threshold for basis singularities:  0.1000E-04
  partition_type (choice of integration weights) for integrals was not specified.
  | Using a version of the partition function of Stratmann and coworkers ('stratmann_sparse').
  | At each grid point, the set of atoms used to build the partition table is smoothly restricted to
  | only those atoms whose free-atom density would be non-zero at that grid point.
  Partitioning for Hartree potential was not defined. Using partition_type for integrals.
  | Adjusted default value of keyword multip_moments_threshold to:       0.10000000E-11
  | This value may affect high angular momentum components of the Hartree potential in periodic systems.
  Threshold for auxiliary basis singularities not set.
  Default threshold for auxiliary basis singularities:  0.1000E-04
  No q(lm)/r^(l+1) cutoff set for long-range Hartree potential.
  | Using default value of  0.100000E-09 .
  | Verify using the multipole_threshold keyword.
  Defaulting to new monopole extrapolation.
  Density update method: automatic selection selected.
  Using density matrix based charge density update.
  Using density matrix based charge density update.
  Using packed matrix style: index .
 * NOTE: You are attempting to run a periodic structure with an exchange treatment
 * which requires a two-electron Coulomb operator (Hartree-Fock or a hybrid functional).
 * The present implementation is reliable to our knowledge, but some things
 * (like band structure output, or perhaps the auxilary basis set for small
 * orbital basis sets - see the "for_aux" keyword) require extra care.
 * Please let us know if you encounter any trouble.
  Coulomb operator: Defaulting to screening threshold for four-center integrals:   0.100000E-06
  Coulomb operator: Defaulting to screening threshold for Coulomb matrix:   0.100000E-09
  Coulomb operator: Defaulting to 'LVL_fast' resolution of identity - RI_type = LVL_fast 
  No other resolution of identity version is supported for periodic boundary conditions at present.
  Coulomb operator: Defaulting to logarithmic spherical Bessel transform integrals (use_logsbt .true.).
  HSE with LVL_fast: Also defaulting to logarithmic spherical Bessel transform integrals.
  Defaulting to use full k-point grid (no symmetry reduction).
  Charge integration errors on the 3D integration grid will be compensated
  by explicit normalization and distribution of residual charges.
  Use the "compensate_multipole_errors" flag to change this behaviour.
  LVL not implemented with density matrix yet
  -> switching to transformed overlap
  LVL probably works better with logsbt
  Default to 1D ("use_logsbt") integrations for auxiliary 2-center integrals.
  Default onset of logarithmic r-grid for SBT is -38.000000000000
  Default onset of logarithmic k-grid for SBT is -25.000000000000
  Default range of logarithmic r- and k-grid for SBT is  45.000000000000
  Default number of logarithmic r- and k-grid for SBT is   4096
  * Use logSBT for radial HSE integration, too
 * NOTE: Band structure and exact exchange are requested at the same time,
 * and exx_band_structure_version is set to 1. 
 * exx_band_structure_version 1 is evaluated in a real-space formalism. It is fast
 * and the preferred version. HOWEVER, it does require a sufficiently
 * dense 'k_grid' to be used for the preceding s.c.f. cycle.
 * If the 'k_grid used for s.c.f. is NOT dense enough, the real-
 * space approach will produce bands that are OBVIOUSLY incorrect.
 * You cannot miss this - they won't look 'slightly' correct. In
 * that case, please try to increase the 'k_grid' parameters used
 * for the s.c.f. cycle. In particular, please avoid k_grid dimensions 
 * of '1' (one) in any dimension. We apologize for this inconvenience.
 * On the bright side, if you use exx_band_structure_version 1 
 * correctly, it will give reliable results without much overhead.
 * 
 * If your band structure does not look reasonable, increase the s.c.f. k-point
 * grid density. Again, it is especially recommended that you avoid dimensions of 1 when
 * specifying k_grid and using this option, even for large unit cells where a
 * gamma-point-only k-grid would be sufficient to converge the accuracy of the
 * calculation.
 * 
 * Please test (e.g., by comparing results from different k_grid settings) when in any doubt.
  Set 'collect_eigenvectors' to be '.true.' for all serial calculations. This is mandatory.
  Set 'collect_eigenvectors' to be '.true.' for KS_method lapack_fast and serial.
 
  Consistency checks for the contents of geometry.in are next.
 

  Range separation radius for Ewald summation (hartree_convergence_parameter):      3.19434779 bohr.
  Number of empty states per atom not set in control.in - providing a guess from actual geometry.
  | Total number of empty states used during s.c.f. cycle:       74
  If you use a very high smearing, use empty_states (per atom!) in control.in to increase this value.

  Structure-dependent array size parameters: 
  | Number of distinct atom types in initial rho :        2
  | Maximum number of distinct radial functions  :       18
  | Maximum number of basis functions            :      460
  | Number of Kohn-Sham states (occupied + empty):      214
------------------------------------------------------------
  Setting Coulomb cut-width to  1.091868692359 * rcut.
  Setting Coulomb cutting radius rcut to 16.018963995061 A.

------------------------------------------------------------
          Preparing all fixed parts of the calculation.
------------------------------------------------------------
  Determining machine precision:
    2.225073858507201E-308
  Setting up grids for atomic and cluster calculations.

  Creating wave function, potential, and density for free atoms.

  Species: Mn

  List of occupied orbitals and eigenvalues:
    n    l              occ      energy [Ha]    energy [eV]
    1    0           2.0000      -238.096457     -6478.9342
    2    0           2.0000       -27.365433      -744.6513
    3    0           2.0000        -3.152827       -85.7928
    4    0           2.0000        -0.184961        -5.0330
    2    1           6.0000       -23.177195      -630.6836
    3    1           6.0000        -2.002774       -54.4983
    3    2           5.0000        -0.245871        -6.6905


  Species: O

  List of occupied orbitals and eigenvalues:
    n    l              occ      energy [Ha]    energy [eV]
    1    0           2.0000       -18.927378      -515.0401
    2    0           2.0000        -0.880539       -23.9607
    2    1           4.0000        -0.331811        -9.0290

  Spin-polarized or charged system:
  Charge density initialized according to selected moments and charges.

  Creating spin-polarized density from free atoms.

  Species: Mn
  Charge:   0.000000
  Moment:   4.000000

  List of occupied orbitals and eigenvalues:
    n    l      energy [Ha]    energy [eV]    occupation
  Spin-up
    1    0      -238.070340     -6478.2236     1.00000000
    2    0       -27.367091      -744.6964     1.00000000
    3    0        -3.203643       -87.1756     1.00000000
    4    0        -0.197240        -5.3672     1.00000000
    2    1       -23.171854      -630.5382     3.00000000
    3    1        -2.053081       -55.8672     3.00000000
    3    2        -0.291806        -7.9405     4.50000000
  Spin-down
    1    0      -238.070687     -6478.2330     1.00000000
    2    0       -27.305830      -743.0295     1.00000000
    3    0        -3.051910       -83.0467     1.00000000
    4    0        -0.166921        -4.5422     1.00000000
    2    1       -23.125264      -629.2705     3.00000000
    3    1        -1.904378       -51.8208     3.00000000
    3    2        -0.162247        -4.4150     0.50000000


  Species: O
  Charge:   0.000000
  Moment:   0.000000

  List of occupied orbitals and eigenvalues:
    n    l      energy [Ha]    energy [eV]    occupation
  Spin-up
    1    0       -18.927378      -515.0401     1.00000000
    2    0        -0.880539       -23.9607     1.00000000
    2    1        -0.331811        -9.0290     2.00000000
  Spin-down
    1    0       -18.927378      -515.0401     1.00000000
    2    0        -0.880539       -23.9607     1.00000000
    2    1        -0.331811        -9.0290     2.00000000


  Adding cutoff potential to free-atom effective potential.
  Creating fixed part of basis set: Ionic, confined, hydrogenic.
 
  Mn                   hydrogenic:
 
  List of hydrogenic basis orbitals: 
    n    l      effective z      eigenvalue [eV]  inner max. [A]     outer max. [A]     outer radius [A]   
    4    3         9.600000       -78.3687           0.876678           0.876678           4.041063
    3    2         3.200000       -15.4667           1.482988           1.482988           5.418979
    2    1         2.000000       -13.6028           1.053123           1.053123           5.418979
    3    0         3.300000       -16.4170           0.118066           2.088318           5.485633
 
  List of extra hydrogenic orbitals for auxiliary basis: 
    n    l      effective z      eigenvalue [eV]  inner max. [A]     outer max. [A]     outer radius [A]   
    5    4        13.600000      -100.6603           0.978641           0.978641           4.041063
 
 
  O                    hydrogenic:
 
  List of hydrogenic basis orbitals: 
    n    l      effective z      eigenvalue [eV]  inner max. [A]     outer max. [A]     outer radius [A]   
    2    1         1.800000       -11.0118           1.178562           1.178562           5.432602
    3    2         7.600000       -87.3182           0.624125           0.624125           3.541477
    3    0         6.400000       -61.9209           0.061167           1.081902           4.306578
 
  Creating atomic-like basis functions for current effective potential.

  Species Mn                  :

  List of atomic basis orbitals and eigenvalues:
    n    l      energy [Ha]    energy [eV]    outer radius [A]
    1    0      -238.096457     -6478.9342       0.426182
    2    0       -27.365433      -744.6513       1.280639
    3    0        -3.152827       -85.7928       3.620033
    4    0        -0.184961        -5.0330       5.418979
    2    1       -23.177195      -630.6836       1.344819
    3    1        -2.002774       -54.4983       4.348617
    3    2        -0.245871        -6.6905       5.288092


  Species O                   :

  List of atomic basis orbitals and eigenvalues:
    n    l      energy [Ha]    energy [eV]    outer radius [A]
    1    0       -18.927378      -515.0401       1.415765
    2    0        -0.880539       -23.9607       5.048385
    2    1        -0.331811        -9.0290       5.301386

  Assembling full basis from fixed parts.
  | Species Mn :   atomic orbital   1 s accepted.
  | Species Mn :   atomic orbital   2 s accepted.
  | Species Mn :   atomic orbital   3 s accepted.
  | Species Mn :   atomic orbital   4 s accepted.
  | Species Mn :    hydro orbital   3 s accepted.
  | Species Mn :   atomic orbital   2 p accepted.
  | Species Mn :   atomic orbital   3 p accepted.
  | Species Mn :    hydro orbital   2 p accepted.
  | Species Mn :   atomic orbital   3 d accepted.
  | Species Mn :    hydro orbital   3 d accepted.
  | Species Mn :    hydro orbital   4 f accepted.
  | Species O :   atomic orbital   1 s accepted.
  | Species O :    hydro orbital   3 s accepted.
  | Species O :   atomic orbital   2 s accepted.
  | Species O :   atomic orbital   2 p accepted.
  | Species O :    hydro orbital   2 p accepted.
  | Species O :    hydro orbital   3 d accepted.
 
  Basis size parameters after reduction:
  | Total number of radial functions:       17
  | Total number of basis functions :      388
 
  Assembling extended basis for auxiliary basis.
  | Species Mn :   atomic orbital   1 s accepted.
  | Species Mn :   atomic orbital   2 s accepted.
  | Species Mn :   atomic orbital   3 s accepted.
  | Species Mn :   atomic orbital   4 s accepted.
  | Species Mn :    hydro orbital   3 s accepted.
  | Species Mn :   atomic orbital   2 p accepted.
  | Species Mn :   atomic orbital   3 p accepted.
  | Species Mn :    hydro orbital   2 p accepted.
  | Species Mn :   atomic orbital   3 d accepted.
  | Species Mn :    hydro orbital   3 d accepted.
  | Species Mn :    hydro orbital   4 f accepted.
  | Species Mn :    hydro orbital   5 g accepted.
  | Species O :   atomic orbital   1 s accepted.
  | Species O :    hydro orbital   3 s accepted.
  | Species O :   atomic orbital   2 s accepted.
  | Species O :   atomic orbital   2 p accepted.
  | Species O :    hydro orbital   2 p accepted.
  | Species O :    hydro orbital   3 d accepted.
  Per-task memory consumption for arrays in subroutine allocate_ext:
  |           6.435416MB.
 
  Extended basis size parameters after reduction:
  | Total number of radial functions:       18
  | Total number of basis functions :      460
 
  Testing on-site integration grid accuracy.
  |  Species  Function  <phi|h_atom|phi> (log., in eV)  <phi|h_atom|phi> (rad., in eV)
           1        1              -6478.9342472267              -6478.9340176474
           1        2               -744.6513224105               -744.6513195399
           1        3                -85.7927988638                -85.7927983026
           1        4                 -5.0370437594                 -5.0369904506
           1        5                 10.8034453353                 10.8035203865
           1        6               -630.6835516950               -630.6835515221
           1        7                -54.4982556298                -54.4982552859
           1        8                  1.0354203974                  1.0354379088
           1        9                 -6.6905433931                 -6.6905426814
           1       10                  7.3169511273                  7.3170217524
           1       11                 40.9535035707                 40.9535035854
           2       12               -515.0401491148               -515.0401445497
           2       13                 15.1629302771                 15.1629233102
           2       14                -21.6127103295                -21.6127145449
           2       15                 -9.0290718243                 -9.0290720379
           2       16                  7.9075681532                  7.9075643182
           2       17                 45.8331828879                 45.8331828941

  Preparing densities etc. for the partition functions (integrals / Hartree potential).

  Preparations completed.
  max(cpu_time)          :      0.538 s.
  Wall clock time (cpu1) :      0.539 s.
------------------------------------------------------------

------------------------------------------------------------
          Begin self-consistency loop: Initialization.

          Date     :  20220916, Time     :  185236.290
------------------------------------------------------------

  Initializing index lists of integration centers etc. from given atomic structure:
  Mapping all atomic coordinates to central unit cell.

  Initializing the k-points
  | Number of k-points                             :       162
  | Consuming        410 KiB for k_phase_exx.
  The eigenvectors in the calculations are COMPLEX.
  | K-points in task   0:         1
  | K-points in task   1:         2
  | K-points in task   2:         2
  | K-points in task   3:         2
  | K-points in task   4:         2
  | K-points in task   5:         2
  | K-points in task   6:         2
  | K-points in task   7:         2
  | K-points in task   8:         2
  | K-points in task   9:         2
  | K-points in task  10:         2
  | K-points in task  11:         2
  | K-points in task  12:         2
  | K-points in task  13:         2
  | K-points in task  14:         2
  | K-points in task  15:         2
  | K-points in task  16:         2
  | K-points in task  17:         2
  | K-points in task  18:         2
  | K-points in task  19:         2
  | K-points in task  20:         2
  | K-points in task  21:         2
  | K-points in task  22:         2
  | K-points in task  23:         2
  | K-points in task  24:         2
  | K-points in task  25:         2
  | K-points in task  26:         2
  | K-points in task  27:         2
  | K-points in task  28:         2
  | K-points in task  29:         2
  | K-points in task  30:         2
  | K-points in task  31:         2
  | K-points in task  32:         2
  | K-points in task  33:         2
  | K-points in task  34:         2
  | K-points in task  35:         2
  | K-points in task  36:         2
  | K-points in task  37:         2
  | K-points in task  38:         2
  | K-points in task  39:         2
  | K-points in task  40:         2
  | K-points in task  41:         2
  | K-points in task  42:         2
  | K-points in task  43:         1
  | K-points in task  44:         1
  | K-points in task  45:         1
  | K-points in task  46:         1
  | K-points in task  47:         1
  | K-points in task  48:         1
  | K-points in task  49:         1
  | K-points in task  50:         1
  | K-points in task  51:         1
  | K-points in task  52:         1
  | K-points in task  53:         1
  | K-points in task  54:         1
  | K-points in task  55:         1
  | K-points in task  56:         1
  | K-points in task  57:         1
  | K-points in task  58:         1
  | K-points in task  59:         1
  | K-points in task  60:         1
  | K-points in task  61:         1
  | K-points in task  62:         1
  | K-points in task  63:         1
  | K-points in task  64:         1
  | K-points in task  65:         1
  | K-points in task  66:         1
  | K-points in task  67:         1
  | K-points in task  68:         1
  | K-points in task  69:         1
  | K-points in task  70:         1
  | K-points in task  71:         1
  | K-points in task  72:         1
  | K-points in task  73:         1
  | K-points in task  74:         1
  | K-points in task  75:         1
  | K-points in task  76:         1
  | K-points in task  77:         1
  | K-points in task  78:         1
  | K-points in task  79:         1
  | K-points in task  80:         1
  | K-points in task  81:         1
  | K-points in task  82:         1
  | K-points in task  83:         1
  | K-points in task  84:         1
  | K-points in task  85:         1
  | K-points in task  86:         1
  | K-points in task  87:         1
  | K-points in task  88:         1
  | K-points in task  89:         1
  | K-points in task  90:         1
  | K-points in task  91:         1
  | K-points in task  92:         1
  | K-points in task  93:         1
  | K-points in task  94:         1
  | K-points in task  95:         1
  | K-points in task  96:         1
  | K-points in task  97:         1
  | K-points in task  98:         1
  | K-points in task  99:         1
  | K-points in task 100:         1
  | K-points in task 101:         1
  | K-points in task 102:         1
  | K-points in task 103:         1
  | K-points in task 104:         1
  | K-points in task 105:         1
  | K-points in task 106:         1
  | K-points in task 107:         1
  | K-points in task 108:         1
  | K-points in task 109:         1
  | K-points in task 110:         1
  | K-points in task 111:         1
  | K-points in task 112:         1
  | K-points in task 113:         1
  | K-points in task 114:         1
  | K-points in task 115:         1
  | K-points in task 116:         1
  | K-points in task 117:         1
  | K-points in task 118:         1
  | K-points in task 119:         1
  | Number of basis functions in the Hamiltonian integrals :      6030
  | Number of basis functions in a single unit cell        :       388
  | Number of centers in hartree potential         :      1752
  | Number of centers in hartree multipole         :      1410
  | Number of centers in electron density summation:      1039
  | Number of centers in basis integrals           :      1157
  | Number of centers in integrals                 :       420
  | Number of centers in hamiltonian               :      1039
  | Consuming        237 KiB for k_phase.
  | Number of super-cells (origin) [n_cells]                     :         495
  | Number of super-cells (after PM_index) [n_cells]             :          94
  | Number of super-cells in hamiltonian [n_cells_in_hamiltonian]:          94
  | Size of matrix packed + index [n_hamiltonian_matrix_size] :     1206967
  | Estimated reciprocal-space cutoff momentum G_max:         3.10318239 bohr^-1 .
  | Reciprocal lattice points for long-range Hartree potential:     742
  Partitioning the integration grid into batches with parallel hashing+maxmin method.
  | Number of batches:     5006
  | Maximal batch size:     108
  | Minimal batch size:      50
  | Average batch size:      76.450
  | Standard deviation of batch sizes:      14.076

  Integration load balanced across   120 MPI tasks.
  Work distribution over tasks is as follows:
  Task     0 has       3178 integration points.
  Task     1 has       3171 integration points.
  Task     2 has       3201 integration points.
  Task     3 has       3204 integration points.
  Task     4 has       3203 integration points.
  Task     5 has       3174 integration points.
  Task     6 has       3212 integration points.
  Task     7 has       3173 integration points.
  Task     8 has       3177 integration points.
  Task     9 has       3199 integration points.
  Task    10 has       3175 integration points.
  Task    11 has       3203 integration points.
  Task    12 has       3206 integration points.
  Task    13 has       3171 integration points.
  Task    14 has       3202 integration points.
  Task    15 has       3176 integration points.
  Task    16 has       3198 integration points.
  Task    17 has       3163 integration points.
  Task    18 has       3180 integration points.
  Task    19 has       3201 integration points.
  Task    20 has       3211 integration points.
  Task    21 has       3171 integration points.
  Task    22 has       3192 integration points.
  Task    23 has       3197 integration points.
  Task    24 has       3170 integration points.
  Task    25 has       3202 integration points.
  Task    26 has       3208 integration points.
  Task    27 has       3178 integration points.
  Task    28 has       3210 integration points.
  Task    29 has       3195 integration points.
  Task    30 has       3174 integration points.
  Task    31 has       3157 integration points.
  Task    32 has       3189 integration points.
  Task    33 has       3200 integration points.
  Task    34 has       3209 integration points.
  Task    35 has       3196 integration points.
  Task    36 has       3192 integration points.
  Task    37 has       3193 integration points.
  Task    38 has       3199 integration points.
  Task    39 has       3203 integration points.
  Task    40 has       3214 integration points.
  Task    41 has       3205 integration points.
  Task    42 has       3208 integration points.
  Task    43 has       3189 integration points.
  Task    44 has       3204 integration points.
  Task    45 has       3179 integration points.
  Task    46 has       3202 integration points.
  Task    47 has       3168 integration points.
  Task    48 has       3192 integration points.
  Task    49 has       3166 integration points.
  Task    50 has       3205 integration points.
  Task    51 has       3169 integration points.
  Task    52 has       3173 integration points.
  Task    53 has       3184 integration points.
  Task    54 has       3200 integration points.
  Task    55 has       3175 integration points.
  Task    56 has       3194 integration points.
  Task    57 has       3172 integration points.
  Task    58 has       3195 integration points.
  Task    59 has       3170 integration points.
  Task    60 has       3172 integration points.
  Task    61 has       3181 integration points.
  Task    62 has       3206 integration points.
  Task    63 has       3197 integration points.
  Task    64 has       3198 integration points.
  Task    65 has       3205 integration points.
  Task    66 has       3229 integration points.
  Task    67 has       3206 integration points.
  Task    68 has       3157 integration points.
  Task    69 has       3167 integration points.
  Task    70 has       3168 integration points.
  Task    71 has       3175 integration points.
  Task    72 has       3197 integration points.
  Task    73 has       3173 integration points.
  Task    74 has       3199 integration points.
  Task    75 has       3209 integration points.
  Task    76 has       3194 integration points.
  Task    77 has       3191 integration points.
  Task    78 has       3201 integration points.
  Task    79 has       3172 integration points.
  Task    80 has       3202 integration points.
  Task    81 has       3200 integration points.
  Task    82 has       3191 integration points.
  Task    83 has       3196 integration points.
  Task    84 has       3174 integration points.
  Task    85 has       3161 integration points.
  Task    86 has       3196 integration points.
  Task    87 has       3168 integration points.
  Task    88 has       3205 integration points.
  Task    89 has       3198 integration points.
  Task    90 has       3191 integration points.
  Task    91 has       3169 integration points.
  Task    92 has       3189 integration points.
  Task    93 has       3207 integration points.
  Task    94 has       3198 integration points.
  Task    95 has       3211 integration points.
  Task    96 has       3205 integration points.
  Task    97 has       3200 integration points.
  Task    98 has       3202 integration points.
  Task    99 has       3165 integration points.
  Task   100 has       3198 integration points.
  Task   101 has       3197 integration points.
  Task   102 has       3177 integration points.
  Task   103 has       3195 integration points.
  Task   104 has       3208 integration points.
  Task   105 has       3171 integration points.
  Task   106 has       3171 integration points.
  Task   107 has       3179 integration points.
  Task   108 has       3155 integration points.
  Task   109 has       3179 integration points.
  Task   110 has       3182 integration points.
  Task   111 has       3198 integration points.
  Task   112 has       3157 integration points.
  Task   113 has       3210 integration points.
  Task   114 has       3163 integration points.
  Task   115 has       3208 integration points.
  Task   116 has       3164 integration points.
  Task   117 has       3168 integration points.
  Task   118 has       3199 integration points.
  Task   119 has       3227 integration points.
  Initializing partition tables, free-atom densities, potentials, etc. across the integration grid (initialize_grid_storage).
  | initialize_grid_storage: Actual outermost partition radius vs. multipole_radius_free
  | (-- VB: in principle, multipole_radius_free should be larger, hence this output)
  | Species        1: Confinement radius =              6.000000000000000 AA, multipole_radius_free =              6.049238153309899 AA.
  | Species        1: outer_partition_radius set to              6.049238153309899 AA .
  | Species        2: Confinement radius =              6.000000000000000 AA, multipole_radius_free =              6.064445521808699 AA.
  | Species        2: outer_partition_radius set to              6.064445521808699 AA .
  | The sparse table of interatomic distances needs       9837.53 kbyte instead of     10709.19 kbyte of memory.
  | Net number of integration points:   382708
  | of which are non-zero points    :   277222
  | Numerical average free-atom electrostatic potential    :    -17.18380165 eV
  Renormalizing the initial density to the exact electron count on the 3D integration grid.
  | Initial density: Formal number of electrons (from input files) :     280.0000000000
  | Integrated number of electrons on 3D grid     :     279.9996991579
  | Charge integration error                      :      -0.0003008421
  | Normalization factor for density and gradient :       1.0000010744
  Renormalizing the free-atom superposition density to the exact electron count on the 3D integration grid.
  | Formal number of electrons (from input files) :     280.0000000000
  | Integrated number of electrons on 3D grid     :     279.9997006004
  | Charge integration error                      :      -0.0002993996
  | Normalization factor for density and gradient :       1.0000010693
  Obtaining max. number of non-zero basis functions in each batch (get_n_compute_maxes).
  | Maximal number of non-zero basis functions:     1046 in task     0
  | Maximal number of non-zero basis functions:     1022 in task     1
  | Maximal number of non-zero basis functions:     1001 in task     2
  | Maximal number of non-zero basis functions:     1026 in task     3
  | Maximal number of non-zero basis functions:     1023 in task     4
  | Maximal number of non-zero basis functions:     1034 in task     5
  | Maximal number of non-zero basis functions:     1038 in task     6
  | Maximal number of non-zero basis functions:     1052 in task     7
  | Maximal number of non-zero basis functions:     1044 in task     8
  | Maximal number of non-zero basis functions:     1041 in task     9
  | Maximal number of non-zero basis functions:     1043 in task    10
  | Maximal number of non-zero basis functions:     1018 in task    11
  | Maximal number of non-zero basis functions:     1039 in task    12
  | Maximal number of non-zero basis functions:     1022 in task    13
  | Maximal number of non-zero basis functions:     1016 in task    14
  | Maximal number of non-zero basis functions:     1023 in task    15
  | Maximal number of non-zero basis functions:     1019 in task    16
  | Maximal number of non-zero basis functions:     1064 in task    17
  | Maximal number of non-zero basis functions:     1040 in task    18
  | Maximal number of non-zero basis functions:     1008 in task    19
  | Maximal number of non-zero basis functions:     1034 in task    20
  | Maximal number of non-zero basis functions:     1006 in task    21
  | Maximal number of non-zero basis functions:     1039 in task    22
  | Maximal number of non-zero basis functions:     1026 in task    23
  | Maximal number of non-zero basis functions:     1014 in task    24
  | Maximal number of non-zero basis functions:     1016 in task    25
  | Maximal number of non-zero basis functions:     1009 in task    26
  | Maximal number of non-zero basis functions:     1037 in task    27
  | Maximal number of non-zero basis functions:     1007 in task    28
  | Maximal number of non-zero basis functions:     1041 in task    29
  | Maximal number of non-zero basis functions:     1026 in task    30
  | Maximal number of non-zero basis functions:     1015 in task    31
  | Maximal number of non-zero basis functions:     1014 in task    32
  | Maximal number of non-zero basis functions:     1042 in task    33
  | Maximal number of non-zero basis functions:     1036 in task    34
  | Maximal number of non-zero basis functions:     1007 in task    35
  | Maximal number of non-zero basis functions:     1033 in task    36
  | Maximal number of non-zero basis functions:     1026 in task    37
  | Maximal number of non-zero basis functions:     1034 in task    38
  | Maximal number of non-zero basis functions:     1020 in task    39
  | Maximal number of non-zero basis functions:     1025 in task    40
  | Maximal number of non-zero basis functions:     1038 in task    41
  | Maximal number of non-zero basis functions:     1029 in task    42
  | Maximal number of non-zero basis functions:     1008 in task    43
  | Maximal number of non-zero basis functions:     1020 in task    44
  | Maximal number of non-zero basis functions:     1035 in task    45
  | Maximal number of non-zero basis functions:     1024 in task    46
  | Maximal number of non-zero basis functions:     1026 in task    47
  | Maximal number of non-zero basis functions:     1032 in task    48
  | Maximal number of non-zero basis functions:     1024 in task    49
  | Maximal number of non-zero basis functions:     1037 in task    50
  | Maximal number of non-zero basis functions:     1015 in task    51
  | Maximal number of non-zero basis functions:     1011 in task    52
  | Maximal number of non-zero basis functions:     1032 in task    53
  | Maximal number of non-zero basis functions:     1034 in task    54
  | Maximal number of non-zero basis functions:     1018 in task    55
  | Maximal number of non-zero basis functions:     1028 in task    56
  | Maximal number of non-zero basis functions:     1037 in task    57
  | Maximal number of non-zero basis functions:     1022 in task    58
  | Maximal number of non-zero basis functions:     1036 in task    59
  | Maximal number of non-zero basis functions:     1025 in task    60
  | Maximal number of non-zero basis functions:     1026 in task    61
  | Maximal number of non-zero basis functions:     1039 in task    62
  | Maximal number of non-zero basis functions:     1026 in task    63
[...]
    151       0.00000          -0.082322           -2.24009
    152       0.00000          -0.081587           -2.22008
    153       0.00000          -0.079207           -2.15534
    154       0.00000          -0.072792           -1.98076
    155       0.00000          -0.067769           -1.84410
    156       0.00000          -0.060096           -1.63530
    157       0.00000          -0.059100           -1.60818
    158       0.00000          -0.054829           -1.49197
    159       0.00000          -0.054013           -1.46977
    160       0.00000          -0.051775           -1.40886
    161       0.00000          -0.050041           -1.36167
    162       0.00000          -0.040571           -1.10398
    163       0.00000          -0.035280           -0.96002
    164       0.00000          -0.034511           -0.93910
    165       0.00000          -0.029500           -0.80273
    166       0.00000           0.054222            1.47546
    167       0.00000           0.068485            1.86356
    168       0.00000           0.082486            2.24457
    169       0.00000           0.121180            3.29748
    170       0.00000           0.131349            3.57418
    171       0.00000           0.153816            4.18555
    172       0.00000           0.156374            4.25515
    173       0.00000           0.207720            5.65236
    174       0.00000           0.217454            5.91722
    175       0.00000           0.221961            6.03986
    176       0.00000           0.259492            7.06114
    177       0.00000           0.262294            7.13739
    178       0.00000           0.289872            7.88781
    179       0.00000           0.300984            8.19020
    180       0.00000           0.311654            8.48053
    181       0.00000           0.313192            8.52239
    182       0.00000           0.320546            8.72251
    183       0.00000           0.325518            8.85781
    184       0.00000           0.356566            9.70266
    185       0.00000           0.370410           10.07936
    186       0.00000           0.377168           10.26327
    187       0.00000           0.387334           10.53990
    188       0.00000           0.393274           10.70154
    189       0.00000           0.413514           11.25229
    190       0.00000           0.419527           11.41590
    191       0.00000           0.420956           11.45481
    192       0.00000           0.436309           11.87256
    193       0.00000           0.441872           12.02395
    194       0.00000           0.444532           12.09634
    195       0.00000           0.464953           12.65201
    196       0.00000           0.475184           12.93041
    197       0.00000           0.485332           13.20656
    198       0.00000           0.491954           13.38676
    199       0.00000           0.511632           13.92220
    200       0.00000           0.542826           14.77106
    201       0.00000           0.544951           14.82887
    202       0.00000           0.559043           15.21234
    203       0.00000           0.566179           15.40650
    204       0.00000           0.591488           16.09520
    205       0.00000           0.611511           16.64007
    206       0.00000           0.627731           17.08143
    207       0.00000           0.632230           17.20385
    208       0.00000           0.634481           17.26512
    209       0.00000           0.657788           17.89931
    210       0.00000           0.664596           18.08457
    211       0.00000           0.672342           18.29536
    212       0.00000           0.692946           18.85601
    213       0.00000           0.701411           19.08638
    214       0.00000           0.737826           20.07726

  Current spin moment of the entire structure :
  | N = N_up - N_down (sum over all k points):        36.00000
  | S (sum over all k points)                :        18.00000

  What follows are estimated values for band gap, HOMO, LUMO, etc.
  | They are estimated on a discrete k-point grid and not necessarily exact.
  | For converged numbers, create a DOS and/or band structure plot on a denser k-grid.

  Highest occupied state (VBM) at     -7.92444996 eV (relative to internal zero)
  | Occupation number:      0.99999997
  | K-point:       1 at    0.000000    0.000000    0.000000 (in units of recip. lattice)
  | Spin channel:        1

  Lowest unoccupied state (CBM) at    -7.06891298 eV (relative to internal zero)
  | Occupation number:      0.00000000
  | K-point:       1 at    0.000000    0.000000    0.000000 (in units of recip. lattice)
  | Spin channel:        1

  ESTIMATED overall HOMO-LUMO gap:      0.85553698 eV between HOMO at k-point 1 and LUMO at k-point 1
  | This appears to be a direct band gap.
  The gap value is above 0.2 eV. Unless you are using a very sparse k-point grid,
  this system is most likely an insulator or a semiconductor.
  | Chemical Potential                          :    -7.88597398 eV

  Self-consistency cycle converged.


------------------------------------------------------------
  End self-consistency iteration #    29       :  max(cpu_time)    wall_clock(cpu1)
  | Time for this iteration                    :       37.752 s          37.812 s
  | Charge density update                      :        0.000 s           0.000 s
  | Density mixing                             :        0.020 s           0.003 s
  | Hartree multipole update                   :        0.004 s           0.004 s
  | Hartree multipole summation                :        0.373 s           0.373 s
  | Integration                                :        1.235 s           1.237 s
  | Fock matrix evaluation                     :       35.657 s          35.719 s
  | Solution of K.-S. eqns.                    :        0.466 s           0.465 s
  | Total energy evaluation                    :        0.003 s           0.002 s

  Partial memory accounting:
  | Current value for overall tracked memory usage:
  |   Minimum:       85.052 MB (on task 109)
  |   Maximum:      146.567 MB (on task  82)
  |   Average:      113.540 MB
  | Peak value for overall tracked memory usage:
  |   Minimum:      115.808 MB (on task 114 after allocating tmpx2)
  |   Maximum:      193.222 MB (on task  35 after allocating tmp2_aux)
  |   Average:      149.114 MB
  | Largest tracked array allocation so far:
  |   Minimum:       49.727 MB (ovlp3fn for atom on task 109)
  |   Maximum:      111.527 MB (ovlp3fn for atom on task  82)
  |   Average:       77.623 MB
  Note:  These values currently only include a subset of arrays which are explicitly tracked.
  The "true" memory usage will be greater.
------------------------------------------------------------

  Energy and forces in a compact form:
  | Total energy uncorrected      :         -0.273620883321447E+06 eV
  | Total energy corrected        :         -0.273620883321447E+06 eV  <-- do not rely on this value for anything but (periodic) metals
  | Electronic free energy        :         -0.273620883321447E+06 eV

  ------------------------------------ 
  Start decomposition of the XC Energy 
  ------------------------------------ 
  X and C from original XC functional choice 
  Hartree-Fock Energy :       -119.159877799 Ha          -3242.505251757 eV
  X Energy            :       -493.882112741 Ha         -13439.216067470 eV
  C Energy            :        -11.598446222 Ha           -315.609779741 eV
  Total XC Energy     :       -505.480558963 Ha         -13754.825847211 eV
  ------------------------------------ 
  LDA X and C from self-consistent density 
  X Energy LDA        :       -461.068688876 Ha         -12546.317373926 eV
  C Energy LDA        :        -22.356305034 Ha           -608.346012289 eV
  ------------------------------------ 
  End decomposition of the XC Energy 
  ------------------------------------ 

------------------------------------------------------------

  -------------------------------------------------------------------
  Writing the requested band structure output (LAPACK version):
  -------------------------------------------------------------------

  Integrating Hamiltonian matrix: batch-based integration.
  Time summed over all CPUs for integration: real work      130.805 s, elapsed      141.079 s

  Treating all   20 k-points in band plot segment #   1:


  "Band gap" along reciprocal space direction number:    1
  | Lowest unoccupied state:      -7.06891298 eV
  | Highest occupied state :      -7.92444996 eV
  | Energy difference      :       0.85553698 eV


  Treating all   20 k-points in band plot segment #   2:


  "Band gap" along reciprocal space direction number:    2
  | Lowest unoccupied state:      -6.04445278 eV
  | Highest occupied state :      -8.29640586 eV
  | Energy difference      :       2.25195308 eV


  Treating all   20 k-points in band plot segment #   3:


  "Band gap" along reciprocal space direction number:    3
  | Lowest unoccupied state:      -6.56043088 eV
  | Highest occupied state :      -8.10519796 eV
  | Energy difference      :       1.54476709 eV


  Treating all   20 k-points in band plot segment #   4:


  "Band gap" along reciprocal space direction number:    4
  | Lowest unoccupied state:      -7.06891298 eV
  | Highest occupied state :      -7.92444996 eV
  | Energy difference      :       0.85553698 eV


  Treating all   20 k-points in band plot segment #   5:


  "Band gap" along reciprocal space direction number:    5
  | Lowest unoccupied state:      -7.06891298 eV
  | Highest occupied state :      -7.92444996 eV
  | Energy difference      :       0.85553698 eV


  Treating all   20 k-points in band plot segment #   6:


  "Band gap" along reciprocal space direction number:    6
  | Lowest unoccupied state:      -6.87204701 eV
  | Highest occupied state :      -7.94689354 eV
  | Energy difference      :       1.07484653 eV


  Treating all   20 k-points in band plot segment #   7:


  "Band gap" along reciprocal space direction number:    7
  | Lowest unoccupied state:      -5.85829046 eV
  | Highest occupied state :      -8.40701090 eV
  | Energy difference      :       2.54872044 eV


  Treating all   20 k-points in band plot segment #   8:


  "Band gap" along reciprocal space direction number:    8
  | Lowest unoccupied state:      -6.55201041 eV
  | Highest occupied state :      -8.10466777 eV
  | Energy difference      :       1.55265736 eV


  Treating all   20 k-points in band plot segment #   9:


  "Band gap" along reciprocal space direction number:    9
  | Lowest unoccupied state:      -6.87204701 eV
  | Highest occupied state :      -7.94689354 eV
  | Energy difference      :       1.07484653 eV


  Treating all   20 k-points in band plot segment #  10:


  "Band gap" along reciprocal space direction number:   10
  | Lowest unoccupied state:      -6.56043088 eV
  | Highest occupied state :      -8.10466777 eV
  | Energy difference      :       1.54423690 eV


  Treating all   20 k-points in band plot segment #  11:


  "Band gap" along reciprocal space direction number:   11
  | Lowest unoccupied state:      -6.04445278 eV
  | Highest occupied state :      -8.29640586 eV
  | Energy difference      :       2.25195308 eV


  Treating all   20 k-points in band plot segment #  12:


  "Band gap" along reciprocal space direction number:   12
  | Lowest unoccupied state:      -5.36646755 eV
  | Highest occupied state :      -8.40701090 eV
  | Energy difference      :       3.04054335 eV

  "Band gap" of total set of bands:
  | Lowest unoccupied state:      -7.06891298 eV
  | Highest occupied state :      -7.92444996 eV
  | Energy difference      :       0.85553698 eV


  Band Structure                                          :  max(cpu_time) wall_clock(cpu1)
  | Total Time                                            :         65.170           65.413
------------------------------------------------------------

------------------------------------------------------------------------------
  Final output of selected total energy values:

  The following output summarizes some interesting total energy values
  at the end of a run (AFTER all relaxation, molecular dynamics, etc.).

  | Total energy of the DFT / Hartree-Fock s.c.f. calculation      :        -273620.883321447 eV
  | Final zero-broadening corrected energy (caution - metals only) :        -273620.883321447 eV
  | For reference only, the value of 1 Hartree used in FHI-aims is :             27.211384500 eV
  | For reference only, the overall average (free atom contribution
  | + realspace contribution) of the electrostatic potential after
  | s.c.f. convergence is                                          :            -16.543535188 eV

  Before relying on these values, please be sure to understand exactly which
  total energy value is referred to by a given number. Different objects may
  all carry the same name 'total energy'. Definitions:

  Total energy of the DFT / Hartree-Fock s.c.f. calculation:
  | Note that this energy does not include ANY quantities calculated after the
  | s.c.f. cycle, in particular not ANY RPA, MP2, etc. many-body perturbation terms.

  Final zero-broadening corrected energy:
  | For metallic systems only, a broadening of the occupation numbers at the Fermi
  | level can be extrapolated back to zero broadening by an electron-gas inspired
  | formula. For all systems that are not real metals, this value can be
  | meaningless and should be avoided.

------------------------------------------------------------------------------
  Methods described in the following list of references were used in this FHI-aims run.
  If you publish the results, please make sure to cite these reference if they apply.
  FHI-aims is an academic code, and for our developers (often, Ph.D. students
  and postdocs), scientific credit in the community is essential.
  Thank you for helping us!

  For any use of FHI-aims, please cite:

    Volker Blum, Ralf Gehrke, Felix Hanke, Paula Havu, Ville Havu,
    Xinguo Ren, Karsten Reuter, and Matthias Scheffler
    'Ab initio molecular simulations with numeric atom-centered orbitals'
    Computer Physics Communications 180, 2175-2196 (2009)
    http://dx.doi.org/10.1016/j.cpc.2009.06.022


  For Hartree-Fock, hybrid functionals, or many-body perturbation theory used in your run, please cite:

    Xinguo Ren, Patrick Rinke, Volker Blum, Juergen Wieferink, Alex Tkatchenko,
    Andrea Sanfilippo, Karsten Reuter, and Matthias Scheffler,
    'Resolution-of-identity approach to Hartree-Fock, hybrid density functionals,
    RPA, MP2, and GW with numeric atom-centered orbital basis functions'
    New Journal of Physics 14, 053020 (2012).
    http://dx.doi.org/10.1088/1367-2630/14/5/053020


  The provided symmetry information was generated with SPGlib:

    Atsushi Togo, Yusuke Seto, Dimitar Pashov
    SPGlib 1.7.3 obtained from http://spglib.sourceforge.net
    Copyright (C) 2008 Atsushi Togo


  The ELSI infrastructure was used in your run to solve the Kohn-Sham electronic structure.
  Please check out http://elsi-interchange.org to learn more.
  If scalability is important for your project, please acknowledge ELSI by citing:

    V. W-z. Yu, F. Corsetti, A. Garcia, W. P. Huhn, M. Jacquelin, W. Jia,
    B. Lange, L. Lin, J. Lu, W. Mi, A. Seifitokaldani, A. Vazquez-Mayagoitia,
    C. Yang, H. Yang, and V. Blum
    'ELSI: A unified software interface for Kohn-Sham electronic structure solvers'
    Computer Physics Communications 222, 267-285 (2018).
    http://dx.doi.org/10.1016/j.cpc.2017.09.007


  For the real-space grid partitioning and parallelization used in this calculation, please cite:

    Ville Havu, Volker Blum, Paula Havu, and Matthias Scheffler,
    'Efficient O(N) integration for all-electron electronic structure calculation'
    'using numerically tabulated basis functions'
    Journal of Computational Physics 228, 8367-8379 (2009).
    http://dx.doi.org/10.1016/j.jcp.2009.08.008


  The high-level electronic structure method used in your calculation
  employed our efficient localized resolution of identity for the Coulomb operator.
  Some calculations, especially large-scale hybrid density functional theory,
  are only possible thanks to this development. For this feature, please cite:

    Arvid Ihrig, Juergen Wieferink, Igor Ying Zhang, Matti Ropo, Xinguo Ren,
    Patrick Rinke, Matthias Scheffler, and Volker Blum,
    'Accurate localized resolution of identity approach for linear-scaling
    hybrid density functionals and for many-body perturbation theory'
    New Journal of Physics 117, 093020 (2015).
    http://dx.doi.org/10.1088/1367-2630/17/9/093020

  Of course, there are many other important community references, e.g., those cited in the
  above references. Our list is limited to references that describe implementations in the
  FHI-aims code. The reason is purely practical (length of this list) - please credit others as well.

------------------------------------------------------------
          Leaving FHI-aims.
          Date     :  20220916, Time     :  191405.852

          Computational steps:
          | Number of self-consistency cycles          :           29
          | Number of SCF (re)initializations          :            1

          Detailed time accounting                     :  max(cpu_time)    wall_clock(cpu1)
          | Total time                                 :     1287.384 s        1290.223 s
          | Preparation time                           :        0.538 s           0.539 s
          | Boundary condition initalization           :        0.198 s           0.199 s
          | Grid partitioning                          :        0.199 s           0.200 s
          | Preloading free-atom quantities on grid    :        0.917 s           0.919 s
          | Free-atom superposition energy             :        0.044 s           0.044 s
          | Total time for integrations                :       36.250 s          36.315 s
          | Product basis setup: Total time            :       61.076 s          61.187 s
          | Total time evaluating exchange matrix      :     1041.249 s        1043.195 s
          | Total time for solution of K.-S. equations :       14.103 s          14.072 s
          | Total time for density update              :       55.464 s          55.546 s
          | Total time for mixing                      :        0.571 s           0.140 s
          | Total time for Hartree multipole update    :        0.133 s           0.131 s
          | Total time for Hartree multipole sum       :       11.565 s          11.582 s
          | Total time for total energy evaluation     :        0.076 s           0.069 s
          | Total time for scaled ZORA corrections     :        0.000 s           0.000 s
          | Total time for band structures, DOS        :       65.280 s          65.413 s

          Partial memory accounting:
          | Residual value for overall tracked memory usage across tasks:     0.000000 MB (should be 0.000000 MB)
          | Peak values for overall tracked memory usage:
          |   Minimum:      115.808 MB (on task 114 after allocating tmpx2)
          |   Maximum:      193.222 MB (on task  35 after allocating tmp2_aux)
          |   Average:      149.114 MB
          | Largest tracked array allocation:
          |   Minimum:       49.727 MB (ovlp3fn for atom on task 109)
          |   Maximum:      111.527 MB (ovlp3fn for atom on task  82)
          |   Average:       77.623 MB
          Note:  These values currently only include a subset of arrays which are explicitly tracked.
          The "true" memory usage will be greater.

          Have a nice day.
------------------------------------------------------------
/home/users/zdcao/learning_hubbard_U/vasp_aims_code/HT_test2/1000255778/hse
finished
